
Linearized model: Predictions were generated on 10-Aug-2023 at 09:35:02 using OpenFAST, compiled as a 64-bit application using single precision at commit v3.5.0
 linked with  NWTC Subroutine Library; ElastoDyn; ServoDyn; HydroDyn; MAP++ (<1.20.10>, <May-17-2023>)

Description from the FAST input file: Input file for CCT9 Campaign 2: Floating offshore wind turbine. Input files to be used in OpenFAST v3.5.0.

Simulation information:
   Simulation time:                     0.0000 s
   Rotor Speed:                         0.0000 rad/s
   Azimuth:                             0.0000 rad
   Wind Speed:                          0.0000 m/s
   Number of continuous states:       333
   Number of discrete states:           0
   Number of constraint states:         0
   Number of inputs:                  235
   Number of outputs:                  60
   Jacobians included in this file?    No

Order of continuous states:
   Row/Column Operating Point                     Rotating Frame? Derivative Order Description
   ---------- ---------------                     --------------- ---------------- -----------
          1    0.000E+00                                 F               2         ED Platform horizontal surge translation DOF (internal DOF index = DOF_Sg), m
          2    0.000E+00                                 F               2         ED Platform horizontal sway translation DOF (internal DOF index = DOF_Sw), m
          3    0.000E+00                                 F               2         ED Platform vertical heave translation DOF (internal DOF index = DOF_Hv), m
          4    0.000E+00                                 F               2         ED Platform roll tilt rotation DOF (internal DOF index = DOF_R), rad
          5    0.000E+00                                 F               2         ED Platform pitch tilt rotation DOF (internal DOF index = DOF_P), rad
          6    0.000E+00                                 F               2         ED Platform yaw rotation DOF (internal DOF index = DOF_Y), rad
          7    0.000E+00                                 F               2         ED 1st tower fore-aft bending mode DOF (internal DOF index = DOF_TFA1), m
          8    0.000E+00                                 F               2         ED 1st tower side-to-side bending mode DOF (internal DOF index = DOF_TSS1), m
          9    0.000E+00                                 F               2         ED 2nd tower fore-aft bending mode DOF (internal DOF index = DOF_TFA2), m
         10    0.000E+00                                 F               2         ED 2nd tower side-to-side bending mode DOF (internal DOF index = DOF_TSS2), m
         11    0.000E+00                                 F               2         ED First time derivative of Platform horizontal surge translation DOF (internal DOF index = DOF_Sg), m/s
         12    0.000E+00                                 F               2         ED First time derivative of Platform horizontal sway translation DOF (internal DOF index = DOF_Sw), m/s
         13    0.000E+00                                 F               2         ED First time derivative of Platform vertical heave translation DOF (internal DOF index = DOF_Hv), m/s
         14    0.000E+00                                 F               2         ED First time derivative of Platform roll tilt rotation DOF (internal DOF index = DOF_R), rad/s
         15    0.000E+00                                 F               2         ED First time derivative of Platform pitch tilt rotation DOF (internal DOF index = DOF_P), rad/s
         16    0.000E+00                                 F               2         ED First time derivative of Platform yaw rotation DOF (internal DOF index = DOF_Y), rad/s
         17    0.000E+00                                 F               2         ED First time derivative of 1st tower fore-aft bending mode DOF (internal DOF index = DOF_TFA1), m/s
         18    0.000E+00                                 F               2         ED First time derivative of 1st tower side-to-side bending mode DOF (internal DOF index = DOF_TSS1), m/s
         19    0.000E+00                                 F               2         ED First time derivative of 2nd tower fore-aft bending mode DOF (internal DOF index = DOF_TFA2), m/s
         20    0.000E+00                                 F               2         ED First time derivative of 2nd tower side-to-side bending mode DOF (internal DOF index = DOF_TSS2), m/s
         21    0.000E+00                                 F               1         HD ExctnPtfmSg1
         22    0.000E+00                                 F               1         HD ExctnPtfmSg2
         23    0.000E+00                                 F               1         HD ExctnPtfmSg3
         24    0.000E+00                                 F               1         HD ExctnPtfmSg4
         25    0.000E+00                                 F               1         HD ExctnPtfmSg5
         26    0.000E+00                                 F               1         HD ExctnPtfmSg6
         27    0.000E+00                                 F               1         HD ExctnPtfmSg7
         28    0.000E+00                                 F               1         HD ExctnPtfmSg8
         29    0.000E+00                                 F               1         HD ExctnPtfmSg9
         30    0.000E+00                                 F               1         HD ExctnPtfmSg10
         31    0.000E+00                                 F               1         HD ExctnPtfmSg11
         32    0.000E+00                                 F               1         HD ExctnPtfmSg12
         33    0.000E+00                                 F               1         HD ExctnPtfmSg13
         34    0.000E+00                                 F               1         HD ExctnPtfmSg14
         35    0.000E+00                                 F               1         HD ExctnPtfmSg15
         36    0.000E+00                                 F               1         HD ExctnPtfmSg16
         37    0.000E+00                                 F               1         HD ExctnPtfmSg17
         38    0.000E+00                                 F               1         HD ExctnPtfmSg18
         39    0.000E+00                                 F               1         HD ExctnPtfmSg19
         40    0.000E+00                                 F               1         HD ExctnPtfmSg20
         41    0.000E+00                                 F               1         HD ExctnPtfmSg21
         42    0.000E+00                                 F               1         HD ExctnPtfmSg22
         43    0.000E+00                                 F               1         HD ExctnPtfmSg23
         44    0.000E+00                                 F               1         HD ExctnPtfmSg24
         45    0.000E+00                                 F               1         HD ExctnPtfmSg25
         46    0.000E+00                                 F               1         HD ExctnPtfmSg26
         47    0.000E+00                                 F               1         HD ExctnPtfmSg27
         48    0.000E+00                                 F               1         HD ExctnPtfmSg28
         49    0.000E+00                                 F               1         HD ExctnPtfmSw1
         50    0.000E+00                                 F               1         HD ExctnPtfmSw2
         51    0.000E+00                                 F               1         HD ExctnPtfmSw3
         52    0.000E+00                                 F               1         HD ExctnPtfmSw4
         53    0.000E+00                                 F               1         HD ExctnPtfmSw5
         54    0.000E+00                                 F               1         HD ExctnPtfmSw6
         55    0.000E+00                                 F               1         HD ExctnPtfmSw7
         56    0.000E+00                                 F               1         HD ExctnPtfmSw8
         57    0.000E+00                                 F               1         HD ExctnPtfmSw9
         58    0.000E+00                                 F               1         HD ExctnPtfmSw10
         59    0.000E+00                                 F               1         HD ExctnPtfmSw11
         60    0.000E+00                                 F               1         HD ExctnPtfmSw12
         61    0.000E+00                                 F               1         HD ExctnPtfmSw13
         62    0.000E+00                                 F               1         HD ExctnPtfmSw14
         63    0.000E+00                                 F               1         HD ExctnPtfmSw15
         64    0.000E+00                                 F               1         HD ExctnPtfmSw16
         65    0.000E+00                                 F               1         HD ExctnPtfmSw17
         66    0.000E+00                                 F               1         HD ExctnPtfmSw18
         67    0.000E+00                                 F               1         HD ExctnPtfmSw19
         68    0.000E+00                                 F               1         HD ExctnPtfmSw20
         69    0.000E+00                                 F               1         HD ExctnPtfmSw21
         70    0.000E+00                                 F               1         HD ExctnPtfmSw22
         71    0.000E+00                                 F               1         HD ExctnPtfmSw23
         72    0.000E+00                                 F               1         HD ExctnPtfmSw24
         73    0.000E+00                                 F               1         HD ExctnPtfmSw25
         74    0.000E+00                                 F               1         HD ExctnPtfmSw26
         75    0.000E+00                                 F               1         HD ExctnPtfmSw27
         76    0.000E+00                                 F               1         HD ExctnPtfmSw28
         77    0.000E+00                                 F               1         HD ExctnPtfmSw29
         78    0.000E+00                                 F               1         HD ExctnPtfmSw30
         79    0.000E+00                                 F               1         HD ExctnPtfmSw31
         80    0.000E+00                                 F               1         HD ExctnPtfmSw32
         81    0.000E+00                                 F               1         HD ExctnPtfmSw33
         82    0.000E+00                                 F               1         HD ExctnPtfmSw34
         83    0.000E+00                                 F               1         HD ExctnPtfmSw35
         84    0.000E+00                                 F               1         HD ExctnPtfmSw36
         85    0.000E+00                                 F               1         HD ExctnPtfmSw37
         86    0.000E+00                                 F               1         HD ExctnPtfmSw38
         87    0.000E+00                                 F               1         HD ExctnPtfmSw39
         88    0.000E+00                                 F               1         HD ExctnPtfmSw40
         89    0.000E+00                                 F               1         HD ExctnPtfmSw41
         90    0.000E+00                                 F               1         HD ExctnPtfmSw42
         91    0.000E+00                                 F               1         HD ExctnPtfmSw43
         92    0.000E+00                                 F               1         HD ExctnPtfmSw44
         93    0.000E+00                                 F               1         HD ExctnPtfmSw45
         94    0.000E+00                                 F               1         HD ExctnPtfmSw46
         95    0.000E+00                                 F               1         HD ExctnPtfmSw47
         96    0.000E+00                                 F               1         HD ExctnPtfmSw48
         97    0.000E+00                                 F               1         HD ExctnPtfmSw49
         98    0.000E+00                                 F               1         HD ExctnPtfmSw50
         99    0.000E+00                                 F               1         HD ExctnPtfmHv1
        100    0.000E+00                                 F               1         HD ExctnPtfmHv2
        101    0.000E+00                                 F               1         HD ExctnPtfmHv3
        102    0.000E+00                                 F               1         HD ExctnPtfmHv4
        103    0.000E+00                                 F               1         HD ExctnPtfmHv5
        104    0.000E+00                                 F               1         HD ExctnPtfmHv6
        105    0.000E+00                                 F               1         HD ExctnPtfmHv7
        106    0.000E+00                                 F               1         HD ExctnPtfmHv8
        107    0.000E+00                                 F               1         HD ExctnPtfmHv9
        108    0.000E+00                                 F               1         HD ExctnPtfmHv10
        109    0.000E+00                                 F               1         HD ExctnPtfmHv11
        110    0.000E+00                                 F               1         HD ExctnPtfmHv12
        111    0.000E+00                                 F               1         HD ExctnPtfmHv13
        112    0.000E+00                                 F               1         HD ExctnPtfmHv14
        113    0.000E+00                                 F               1         HD ExctnPtfmHv15
        114    0.000E+00                                 F               1         HD ExctnPtfmHv16
        115    0.000E+00                                 F               1         HD ExctnPtfmR1
        116    0.000E+00                                 F               1         HD ExctnPtfmR2
        117    0.000E+00                                 F               1         HD ExctnPtfmR3
        118    0.000E+00                                 F               1         HD ExctnPtfmR4
        119    0.000E+00                                 F               1         HD ExctnPtfmR5
        120    0.000E+00                                 F               1         HD ExctnPtfmR6
        121    0.000E+00                                 F               1         HD ExctnPtfmR7
        122    0.000E+00                                 F               1         HD ExctnPtfmR8
        123    0.000E+00                                 F               1         HD ExctnPtfmR9
        124    0.000E+00                                 F               1         HD ExctnPtfmR10
        125    0.000E+00                                 F               1         HD ExctnPtfmR11
        126    0.000E+00                                 F               1         HD ExctnPtfmR12
        127    0.000E+00                                 F               1         HD ExctnPtfmR13
        128    0.000E+00                                 F               1         HD ExctnPtfmR14
        129    0.000E+00                                 F               1         HD ExctnPtfmR15
        130    0.000E+00                                 F               1         HD ExctnPtfmR16
        131    0.000E+00                                 F               1         HD ExctnPtfmR17
        132    0.000E+00                                 F               1         HD ExctnPtfmR18
        133    0.000E+00                                 F               1         HD ExctnPtfmR19
        134    0.000E+00                                 F               1         HD ExctnPtfmR20
        135    0.000E+00                                 F               1         HD ExctnPtfmR21
        136    0.000E+00                                 F               1         HD ExctnPtfmR22
        137    0.000E+00                                 F               1         HD ExctnPtfmR23
        138    0.000E+00                                 F               1         HD ExctnPtfmR24
        139    0.000E+00                                 F               1         HD ExctnPtfmR25
        140    0.000E+00                                 F               1         HD ExctnPtfmR26
        141    0.000E+00                                 F               1         HD ExctnPtfmR27
        142    0.000E+00                                 F               1         HD ExctnPtfmR28
        143    0.000E+00                                 F               1         HD ExctnPtfmR29
        144    0.000E+00                                 F               1         HD ExctnPtfmR30
        145    0.000E+00                                 F               1         HD ExctnPtfmR31
        146    0.000E+00                                 F               1         HD ExctnPtfmR32
        147    0.000E+00                                 F               1         HD ExctnPtfmR33
        148    0.000E+00                                 F               1         HD ExctnPtfmR34
        149    0.000E+00                                 F               1         HD ExctnPtfmR35
        150    0.000E+00                                 F               1         HD ExctnPtfmR36
        151    0.000E+00                                 F               1         HD ExctnPtfmR37
        152    0.000E+00                                 F               1         HD ExctnPtfmR38
        153    0.000E+00                                 F               1         HD ExctnPtfmR39
        154    0.000E+00                                 F               1         HD ExctnPtfmR40
        155    0.000E+00                                 F               1         HD ExctnPtfmR41
        156    0.000E+00                                 F               1         HD ExctnPtfmR42
        157    0.000E+00                                 F               1         HD ExctnPtfmR43
        158    0.000E+00                                 F               1         HD ExctnPtfmR44
        159    0.000E+00                                 F               1         HD ExctnPtfmR45
        160    0.000E+00                                 F               1         HD ExctnPtfmR46
        161    0.000E+00                                 F               1         HD ExctnPtfmR47
        162    0.000E+00                                 F               1         HD ExctnPtfmR48
        163    0.000E+00                                 F               1         HD ExctnPtfmR49
        164    0.000E+00                                 F               1         HD ExctnPtfmR50
        165    0.000E+00                                 F               1         HD ExctnPtfmR51
        166    0.000E+00                                 F               1         HD ExctnPtfmR52
        167    0.000E+00                                 F               1         HD ExctnPtfmP1
        168    0.000E+00                                 F               1         HD ExctnPtfmP2
        169    0.000E+00                                 F               1         HD ExctnPtfmP3
        170    0.000E+00                                 F               1         HD ExctnPtfmP4
        171    0.000E+00                                 F               1         HD ExctnPtfmP5
        172    0.000E+00                                 F               1         HD ExctnPtfmP6
        173    0.000E+00                                 F               1         HD ExctnPtfmP7
        174    0.000E+00                                 F               1         HD ExctnPtfmP8
        175    0.000E+00                                 F               1         HD ExctnPtfmP9
        176    0.000E+00                                 F               1         HD ExctnPtfmP10
        177    0.000E+00                                 F               1         HD ExctnPtfmP11
        178    0.000E+00                                 F               1         HD ExctnPtfmP12
        179    0.000E+00                                 F               1         HD ExctnPtfmY1
        180    0.000E+00                                 F               1         HD ExctnPtfmY2
        181    0.000E+00                                 F               1         HD ExctnPtfmY3
        182    0.000E+00                                 F               1         HD ExctnPtfmY4
        183    0.000E+00                                 F               1         HD ExctnPtfmY5
        184    0.000E+00                                 F               1         HD ExctnPtfmY6
        185    0.000E+00                                 F               1         HD ExctnPtfmY7
        186    0.000E+00                                 F               1         HD ExctnPtfmY8
        187    0.000E+00                                 F               1         HD ExctnPtfmY9
        188    0.000E+00                                 F               1         HD ExctnPtfmY10
        189    0.000E+00                                 F               1         HD ExctnPtfmY11
        190    0.000E+00                                 F               1         HD ExctnPtfmY12
        191    0.000E+00                                 F               1         HD ExctnPtfmY13
        192    0.000E+00                                 F               1         HD ExctnPtfmY14
        193    0.000E+00                                 F               1         HD ExctnPtfmY15
        194    0.000E+00                                 F               1         HD ExctnPtfmY16
        195    0.000E+00                                 F               1         HD ExctnPtfmY17
        196    0.000E+00                                 F               1         HD ExctnPtfmY18
        197    0.000E+00                                 F               1         HD ExctnPtfmY19
        198    0.000E+00                                 F               1         HD ExctnPtfmY20
        199    0.000E+00                                 F               1         HD ExctnPtfmY21
        200    0.000E+00                                 F               1         HD ExctnPtfmY22
        201    0.000E+00                                 F               1         HD ExctnPtfmY23
        202    0.000E+00                                 F               1         HD ExctnPtfmY24
        203    0.000E+00                                 F               1         HD ExctnPtfmY25
        204    0.000E+00                                 F               1         HD ExctnPtfmY26
        205    0.000E+00                                 F               1         HD ExctnPtfmY27
        206    0.000E+00                                 F               1         HD ExctnPtfmY28
        207    0.000E+00                                 F               1         HD ExctnPtfmY29
        208    0.000E+00                                 F               1         HD ExctnPtfmY30
        209    0.000E+00                                 F               1         HD ExctnPtfmY31
        210    0.000E+00                                 F               1         HD ExctnPtfmY32
        211    0.000E+00                                 F               1         HD ExctnPtfmY33
        212    0.000E+00                                 F               1         HD ExctnPtfmY34
        213    0.000E+00                                 F               1         HD ExctnPtfmY35
        214    0.000E+00                                 F               1         HD ExctnPtfmY36
        215    0.000E+00                                 F               1         HD ExctnPtfmY37
        216    0.000E+00                                 F               1         HD ExctnPtfmY38
        217    0.000E+00                                 F               1         HD ExctnPtfmY39
        218    0.000E+00                                 F               1         HD ExctnPtfmY40
        219    0.000E+00                                 F               1         HD ExctnPtfmY41
        220    0.000E+00                                 F               1         HD ExctnPtfmY42
        221    0.000E+00                                 F               1         HD ExctnPtfmY43
        222    0.000E+00                                 F               1         HD ExctnPtfmY44
        223    0.000E+00                                 F               1         HD ExctnPtfmY45
        224    0.000E+00                                 F               1         HD ExctnPtfmY46
        225    0.000E+00                                 F               1         HD ExctnPtfmY47
        226    0.000E+00                                 F               1         HD ExctnPtfmY48
        227    0.000E+00                                 F               1         HD ExctnPtfmY49
        228    0.000E+00                                 F               1         HD ExctnPtfmY50
        229    0.000E+00                                 F               1         HD ExctnPtfmY51
        230    0.000E+00                                 F               1         HD ExctnPtfmY52
        231    0.000E+00                                 F               1         HD ExctnPtfmY53
        232    0.000E+00                                 F               1         HD ExctnPtfmY54
        233    0.000E+00                                 F               1         HD ExctnPtfmY55
        234    0.000E+00                                 F               1         HD ExctnPtfmY56
        235    0.000E+00                                 F               1         HD ExctnPtfmY57
        236    0.000E+00                                 F               1         HD ExctnPtfmY58
        237    0.000E+00                                 F               1         HD ExctnPtfmY59
        238    0.000E+00                                 F               1         HD ExctnPtfmY60
        239    0.000E+00                                 F               1         HD ExctnPtfmY61
        240    0.000E+00                                 F               1         HD ExctnPtfmY62
        241    0.000E+00                                 F               1         HD ExctnPtfmY63
        242    0.000E+00                                 F               1         HD ExctnPtfmY64
        243    0.000E+00                                 F               1         HD ExctnPtfmY65
        244    0.000E+00                                 F               1         HD ExctnPtfmY66
        245    0.000E+00                                 F               1         HD ExctnPtfmY67
        246    0.000E+00                                 F               1         HD ExctnPtfmY68
        247    0.000E+00                                 F               1         HD ExctnPtfmY69
        248    0.000E+00                                 F               1         HD ExctnPtfmY70
        249    0.000E+00                                 F               1         HD ExctnPtfmY71
        250    0.000E+00                                 F               1         HD ExctnPtfmY72
        251    0.000E+00                                 F               1         HD ExctnPtfmY73
        252    0.000E+00                                 F               1         HD ExctnPtfmY74
        253    0.000E+00                                 F               1         HD ExctnPtfmY75
        254    0.000E+00                                 F               1         HD ExctnPtfmY76
        255    0.000E+00                                 F               1         HD ExctnPtfmY77
        256    0.000E+00                                 F               1         HD ExctnPtfmY78
        257    0.000E+00                                 F               1         HD ExctnPtfmY79
        258    0.000E+00                                 F               1         HD ExctnPtfmY80
        259    0.000E+00                                 F               1         HD ExctnPtfmY81
        260    0.000E+00                                 F               1         HD ExctnPtfmY82
        261    0.000E+00                                 F               1         HD ExctnPtfmY83
        262    0.000E+00                                 F               1         HD ExctnPtfmY84
        263    0.000E+00                                 F               1         HD ExctnPtfmY85
        264    0.000E+00                                 F               1         HD ExctnPtfmY86
        265    0.000E+00                                 F               1         HD ExctnPtfmY87
        266    0.000E+00                                 F               1         HD ExctnPtfmY88
        267    0.000E+00                                 F               1         HD ExctnPtfmY89
        268    0.000E+00                                 F               1         HD ExctnPtfmY90
        269    0.000E+00                                 F               1         HD RdtnPtfmSg1
        270    0.000E+00                                 F               1         HD RdtnPtfmSg2
        271    0.000E+00                                 F               1         HD RdtnPtfmSg3
        272    0.000E+00                                 F               1         HD RdtnPtfmSg4
        273    0.000E+00                                 F               1         HD RdtnPtfmSg5
        274    0.000E+00                                 F               1         HD RdtnPtfmSg6
        275    0.000E+00                                 F               1         HD RdtnPtfmSg7
        276    0.000E+00                                 F               1         HD RdtnPtfmSg8
        277    0.000E+00                                 F               1         HD RdtnPtfmSg9