
Predictions were generated on 04-Oct-2023 at 08:10:58 using OpenFAST, compiled as a 64-bit application using single precision at commit v3.5.0
 linked with  NWTC Subroutine Library; ElastoDyn; HydroDyn; MoorDyn (v2.0.0, 2022-12-08)

Description from the FAST input file: Generated with AeroElasticSE FAST driver

Time	PtfmHeave	PtfmPitch	PtfmRAxi	PtfmRAyi	PtfmRAzi	PtfmRoll	PtfmSurge	PtfmSway	PtfmTAxi	PtfmTAyi	PtfmTAzi	PtfmYaw	TTDspFA	TTDspSS	TwHt1ALxt	TwHt1ALyt	TwrBsFxt	TwrBsFyt	TwrBsFzt	TwrBsMxt	TwrBsMyt	TwrBsMzt	YawBrTAxp	YawBrTAyp	YawBrTAzp	Wave1Elev	FAIRTEN1	FAIRTEN2	FAIRTEN3
(s)	(m)	(deg)	(deg/s^2)	(deg/s^2)	(deg/s^2)	(deg)	(m)	(m)	(m/s^2)	(m/s^2)	(m/s^2)	(deg)	(m)	(m)	(m/s^2)	(m/s^2)	(kN)	(kN)	(kN)	(kN-m)	(kN-m)	(kN-m)	(m/s^2)	(m/s^2)	(m/s^2)	(m)	(N)	(N)	(N)
    0.0000	 1.950E-02	-1.862E-01	 4.282E-03	-1.479E-01	 6.895E-04	-4.290E-01	 3.187E+00	-1.984E+00	-7.298E-02	-1.609E-03	 2.653E-02	 2.100E-02	-1.550E-01	 2.400E-02	-9.321E-02	-3.043E-03	-1.127E+03	 9.884E+01	-1.537E+04	-1.170E+04	-8.761E+04	-3.773E+02	 8.576E-01	 1.752E-02	 2.048E-02	 0.000E+00	 3.332E+06	 3.084E+06	 3.176E+06
