
Linearized model: Predictions were generated on 16-Aug-2023 at 10:55:41 using OpenFAST, compiled as a 64-bit application using single precision at commit v3.5.0
 linked with  NWTC Subroutine Library; ElastoDyn; ServoDyn; HydroDyn; MoorDyn (v2.0.0, 2022-12-08)

Description from the FAST input file: Generated with AeroElasticSE FAST driver

Simulation information:
   Simulation time:                     0.0000 s
   Rotor Speed:                         0.0000 rad/s
   Azimuth:                             0.0000 rad
   Wind Speed:                          0.0000 m/s
   Number of continuous states:        36
   Number of discrete states:           0
   Number of constraint states:         0
   Number of inputs:                  220
   Number of outputs:                  10
   Jacobians included in this file?    No

Order of continuous states:
   Row/Column Operating Point                     Rotating Frame? Derivative Order Description
   ---------- ---------------                     --------------- ---------------- -----------
          1    0.000E+00                                 F               2         SrvD Substructure StC 1 local displacement state X  m
          2    0.000E+00                                 F               2         SrvD Substructure StC 1 local displacement state Y  m
          3    0.000E+00                                 F               2         SrvD Substructure StC 1 local displacement state Z  m
          4    0.000E+00                                 F               2         SrvD Substructure StC 1 local displacement state dX/dt  m/s
          5    0.000E+00                                 F               2         SrvD Substructure StC 1 local displacement state dY/dt  m/s
          6    0.000E+00                                 F               2         SrvD Substructure StC 1 local displacement state dZ/dt  m/s
          7    0.000E+00                                 F               2         SrvD Substructure StC 2 local displacement state X  m
          8    0.000E+00                                 F               2         SrvD Substructure StC 2 local displacement state Y  m
          9    0.000E+00                                 F               2         SrvD Substructure StC 2 local displacement state Z  m
         10    0.000E+00                                 F               2         SrvD Substructure StC 2 local displacement state dX/dt  m/s
         11    0.000E+00                                 F               2         SrvD Substructure StC 2 local displacement state dY/dt  m/s
         12    0.000E+00                                 F               2         SrvD Substructure StC 2 local displacement state dZ/dt  m/s
         13    0.000E+00                                 F               2         SrvD Substructure StC 3 local displacement state X  m
         14    0.000E+00                                 F               2         SrvD Substructure StC 3 local displacement state Y  m
         15    0.000E+00                                 F               2         SrvD Substructure StC 3 local displacement state Z  m
         16    0.000E+00                                 F               2         SrvD Substructure StC 3 local displacement state dX/dt  m/s
         17    0.000E+00                                 F               2         SrvD Substructure StC 3 local displacement state dY/dt  m/s
         18    0.000E+00                                 F               2         SrvD Substructure StC 3 local displacement state dZ/dt  m/s
         19    0.000E+00                                 F               2         ED Platform horizontal surge translation DOF (internal DOF index = DOF_Sg), m
         20    0.000E+00                                 F               2         ED Platform horizontal sway translation DOF (internal DOF index = DOF_Sw), m
         21    0.000E+00                                 F               2         ED Platform vertical heave translation DOF (internal DOF index = DOF_Hv), m
         22    0.000E+00                                 F               2         ED Platform roll tilt rotation DOF (internal DOF index = DOF_R), rad
         23    0.000E+00                                 F               2         ED Platform pitch tilt rotation DOF (internal DOF index = DOF_P), rad
         24    0.000E+00                                 F               2         ED 1st tower fore-aft bending mode DOF (internal DOF index = DOF_TFA1), m
         25    0.000E+00                                 F               2         ED 1st tower side-to-side bending mode DOF (internal DOF index = DOF_TSS1), m
         26    0.000E+00                                 F               2         ED 2nd tower fore-aft bending mode DOF (internal DOF index = DOF_TFA2), m
         27    0.000E+00                                 F               2         ED 2nd tower side-to-side bending mode DOF (internal DOF index = DOF_TSS2), m
         28    0.000E+00                                 F               2         ED First time derivative of Platform horizontal surge translation DOF (internal DOF index = DOF_Sg), m/s
         29    0.000E+00                                 F               2         ED First time derivative of Platform horizontal sway translation DOF (internal DOF index = DOF_Sw), m/s
         30    0.000E+00                                 F               2         ED First time derivative of Platform vertical heave translation DOF (internal DOF index = DOF_Hv), m/s
         31    0.000E+00                                 F               2         ED First time derivative of Platform roll tilt rotation DOF (internal DOF index = DOF_R), rad/s
         32    0.000E+00                                 F               2         ED First time derivative of Platform pitch tilt rotation DOF (internal DOF index = DOF_P), rad/s
         33    0.000E+00                                 F               2         ED First time derivative of 1st tower fore-aft bending mode DOF (internal DOF index = DOF_TFA1), m/s
         34    0.000E+00                                 F               2         ED First time derivative of 1st tower side-to-side bending mode DOF (internal DOF index = DOF_TSS1), m/s
         35    0.000E+00                                 F               2         ED First time derivative of 2nd tower fore-aft bending mode DOF (internal DOF index = DOF_TFA2), m/s
         36    0.000E+00                                 F               2         ED First time derivative of 2nd tower side-to-side bending mode DOF (internal DOF index = DOF_TSS2), m/s

Order of continuous state derivatives:
   Row/Column Operating Point                     Rotating Frame? Derivative Order Description
   ---------- ---------------                     --------------- ---------------- -----------
          1    0.000E+00                                 F               2         First time derivative of SrvD Substructure StC 1 local displacement state X  m/s
          2    0.000E+00                                 F               2         First time derivative of SrvD Substructure StC 1 local displacement state Y  m/s
          3    0.000E+00                                 F               2         First time derivative of SrvD Substructure StC 1 local displacement state Z  m/s
          4    0.000E+00                                 F               2         First time derivative of SrvD Substructure StC 1 local displacement state dX/dt  m/s/s
          5    0.000E+00                                 F               2         First time derivative of SrvD Substructure StC 1 local displacement state dY/dt  m/s/s
          6    9.807E+00                                 F               2         First time derivative of SrvD Substructure StC 1 local displacement state dZ/dt  m/s/s
          7    0.000E+00                                 F               2         First time derivative of SrvD Substructure StC 2 local displacement state X  m/s
          8    0.000E+00                                 F               2         First time derivative of SrvD Substructure StC 2 local displacement state Y  m/s
          9    0.000E+00                                 F               2         First time derivative of SrvD Substructure StC 2 local displacement state Z  m/s
         10    0.000E+00                                 F               2         First time derivative of SrvD Substructure StC 2 local displacement state dX/dt  m/s/s
         11    0.000E+00                                 F               2         First time derivative of SrvD Substructure StC 2 local displacement state dY/dt  m/s/s
         12    9.807E+00                                 F               2         First time derivative of SrvD Substructure StC 2 local displacement state dZ/dt  m/s/s
         13    0.000E+00                                 F               2         First time derivative of SrvD Substructure StC 3 local displacement state X  m/s
         14    0.000E+00                                 F               2         First time derivative of SrvD Substructure StC 3 local displacement state Y  m/s
         15    0.000E+00                                 F               2         First time derivative of SrvD Substructure StC 3 local displacement state Z  m/s
         16    0.000E+00                                 F               2         First time derivative of SrvD Substructure StC 3 local displacement state dX/dt  m/s/s
         17    0.000E+00                                 F               2         First time derivative of SrvD Substructure StC 3 local displacement state dY/dt  m/s/s
         18    9.807E+00                                 F               2         First time derivative of SrvD Substructure StC 3 local displacement state dZ/dt  m/s/s
         19    0.000E+00                                 F               2         First time derivative of ED Platform horizontal surge translation DOF (internal DOF index = DOF_Sg), m/s
         20    0.000E+00                                 F               2         First time derivative of ED Platform horizontal sway translation DOF (internal DOF index = DOF_Sw), m/s
         21    0.000E+00                                 F               2         First time derivative of ED Platform vertical heave translation DOF (internal DOF index = DOF_Hv), m/s
         22    0.000E+00                                 F               2         First time derivative of ED Platform roll tilt rotation DOF (internal DOF index = DOF_R), rad/s
         23    0.000E+00                                 F               2         First time derivative of ED Platform pitch tilt rotation DOF (internal DOF index = DOF_P), rad/s
         24    0.000E+00                                 F               2         First time derivative of ED 1st tower fore-aft bending mode DOF (internal DOF index = DOF_TFA1), m/s
         25    0.000E+00                                 F               2         First time derivative of ED 1st tower side-to-side bending mode DOF (internal DOF index = DOF_TSS1), m/s
         26    0.000E+00                                 F               2         First time derivative of ED 2nd tower fore-aft bending mode DOF (internal DOF index = DOF_TFA2), m/s
         27    0.000E+00                                 F               2         First time derivative of ED 2nd tower side-to-side bending mode DOF (internal DOF index = DOF_TSS2), m/s
         28    1.101E-02                                 F               2         First time derivative of ED First time derivative of Platform horizontal surge translation DOF (internal DOF index = DOF_Sg), m/s/s
         29   -4.883E-03                                 F               2         First time derivative of ED First time derivative of Platform horizontal sway translation DOF (internal DOF index = DOF_Sw), m/s/s
         30    3.022E-02                                 F               2         First time derivative of ED First time derivative of Platform vertical heave translation DOF (internal DOF index = DOF_Hv), m/s/s
         31   -9.012E-04                                 F               2         First time derivative of ED First time derivative of Platform roll tilt rotation DOF (internal DOF index = DOF_R), rad/s/s
         32    4.236E-04                                 F               2         First time derivative of ED First time derivative of Platform pitch tilt rotation DOF (internal DOF index = DOF_P), rad/s/s
         33   -5.963E-01                                 F               2         First time derivative of ED First time derivative of 1st tower fore-aft bending mode DOF (internal DOF index = DOF_TFA1), m/s/s
         34    1.210E-01                                 F               2         First time derivative of ED First time derivative of 1st tower side-to-side bending mode DOF (internal DOF index = DOF_TSS1), m/s/s
         35    9.172E-01                                 F               2         First time derivative of ED First time derivative of 2nd tower fore-aft bending mode DOF (internal DOF index = DOF_TFA2), m/s/s
         36    3.710E-03                                 F               2         First time derivative of ED First time derivative of 2nd tower side-to-side bending mode DOF (internal DOF index = DOF_TSS2), m/s/s

Order of inputs:
     Column   Operating Point                     Rotating Frame? Derivative Order Description
   ---------- ---------------                     --------------- ---------------- -----------
          1    0.000E+00                                 F               0         SrvD Yaw, rad
          2    0.000E+00                                 F               0         SrvD YawRate, rad/s
          3    0.000E+00                                 F               0         SrvD HSS_Spd, rad/s
          4    0.000E+00                                 F               0         SrvD Substructure StC 1 X translation displacement, node 1, m
          5    0.000E+00                                 F               0         SrvD Substructure StC 1 Y translation displacement, node 1, m
          6    0.000E+00                                 F               0         SrvD Substructure StC 1 Z translation displacement, node 1, m
          7    1.000E+00,  0.000E+00,  0.000E+00         F               0         SrvD Substructure StC 1 X orientation angle, node 1, rad
          8    0.000E+00,  1.000E+00,  0.000E+00         F               0         SrvD Substructure StC 1 Y orientation angle, node 1, rad
          9    0.000E+00,  0.000E+00,  1.000E+00         F               0         SrvD Substructure StC 1 Z orientation angle, node 1, rad
         10    0.000E+00                                 F               0         SrvD Substructure StC 1 X translation velocity, node 1, m/s
         11    0.000E+00                                 F               0         SrvD Substructure StC 1 Y translation velocity, node 1, m/s
         12    0.000E+00                                 F               0         SrvD Substructure StC 1 Z translation velocity, node 1, m/s
         13    0.000E+00                                 F               0         SrvD Substructure StC 1 X rotation velocity, node 1, rad/s
         14    0.000E+00                                 F               0         SrvD Substructure StC 1 Y rotation velocity, node 1, rad/s
         15    0.000E+00                                 F               0         SrvD Substructure StC 1 Z rotation velocity, node 1, rad/s
         16    8.034E-03                                 F               0         SrvD Substructure StC 1 X translation acceleration, node 1, m/s^2
         17   -1.122E-02                                 F               0         SrvD Substructure StC 1 Y translation acceleration, node 1, m/s^2
         18    5.961E-02                                 F               0         SrvD Substructure StC 1 Z translation acceleration, node 1, m/s^2
         19   -9.012E-04                                 F               0         SrvD Substructure StC 1 X rotation acceleration, node 1, rad/s^2
         20    4.236E-04                                 F               0         SrvD Substructure StC 1 Y rotation acceleration, node 1, rad/s^2
         21    0.000E+00                                 F               0         SrvD Substructure StC 1 Z rotation acceleration, node 1, rad/s^2
         22    0.000E+00                                 F               0         SrvD Substructure StC 2 X translation displacement, node 1, m
         23    0.000E+00                                 F               0         SrvD Substructure StC 2 Y translation displacement, node 1, m
         24    0.000E+00                                 F               0         SrvD Substructure StC 2 Z translation displacement, node 1, m
         25    1.000E+00,  0.000E+00,  0.000E+00         F               0         SrvD Substructure StC 2 X orientation angle, node 1, rad
         26    0.000E+00,  1.000E+00,  0.000E+00         F               0         SrvD Substructure StC 2 Y orientation angle, node 1, rad
         27    0.000E+00,  0.000E+00,  1.000E+00         F               0         SrvD Substructure StC 2 Z orientation angle, node 1, rad
         28    0.000E+00                                 F               0         SrvD Substructure StC 2 X translation velocity, node 1, m/s
         29    0.000E+00                                 F               0         SrvD Substructure StC 2 Y translation velocity, node 1, m/s
         30    0.000E+00                                 F               0         SrvD Substructure StC 2 Z translation velocity, node 1, m/s
         31    0.000E+00                                 F               0         SrvD Substructure StC 2 X rotation velocity, node 1, rad/s
         32    0.000E+00                                 F               0         SrvD Substructure StC 2 Y rotation velocity, node 1, rad/s
         33    0.000E+00                                 F               0         SrvD Substructure StC 2 Z rotation velocity, node 1, rad/s
         34    8.034E-03                                 F               0         SrvD Substructure StC 2 X translation acceleration, node 1, m/s^2
         35   -1.122E-02                                 F               0         SrvD Substructure StC 2 Y translation acceleration, node 1, m/s^2
         36   -2.105E-02                                 F               0         SrvD Substructure StC 2 Z translation acceleration, node 1, m/s^2
         37   -9.012E-04                                 F               0         SrvD Substructure StC 2 X rotation acceleration, node 1, rad/s^2
         38    4.236E-04                                 F               0         SrvD Substructure StC 2 Y rotation acceleration, node 1, rad/s^2
         39    0.000E+00                                 F               0         SrvD Substructure StC 2 Z rotation acceleration, node 1, rad/s^2
         40    0.000E+00                                 F               0         SrvD Substructure StC 3 X translation displacement, node 1, m
         41    0.000E+00                                 F               0         SrvD Substructure StC 3 Y translation displacement, node 1, m
         42    0.000E+00                                 F               0         SrvD Substructure StC 3 Z translation displacement, node 1, m
         43    1.000E+00,  0.000E+00,  0.000E+00         F               0         SrvD Substructure StC 3 X orientation angle, node 1, rad
         44    0.000E+00,  1.000E+00,  0.000E+00         F               0         SrvD Substructure StC 3 Y orientation angle, node 1, rad
         45    0.000E+00,  0.000E+00,  1.000E+00         F               0         SrvD Substructure StC 3 Z orientation angle, node 1, rad
         46    0.000E+00                                 F               0         SrvD Substructure StC 3 X translation velocity, node 1, m/s
         47    0.000E+00                                 F               0         SrvD Substructure StC 3 Y translation velocity, node 1, m/s
         48    0.000E+00                                 F               0         SrvD Substructure StC 3 Z translation velocity, node 1, m/s
         49    0.000E+00                                 F               0         SrvD Substructure StC 3 X rotation velocity, node 1, rad/s
         50    0.000E+00                                 F               0         SrvD Substructure StC 3 Y rotation velocity, node 1, rad/s
         51    0.000E+00                                 F               0         SrvD Substructure StC 3 Z rotation velocity, node 1, rad/s
         52    8.034E-03                                 F               0         SrvD Substructure StC 3 X translation acceleration, node 1, m/s^2
         53   -1.122E-02                                 F               0         SrvD Substructure StC 3 Y translation acceleration, node 1, m/s^2
         54    5.211E-02                                 F               0         SrvD Substructure StC 3 Z translation acceleration, node 1, m/s^2
         55   -9.012E-04                                 F               0         SrvD Substructure StC 3 X rotation acceleration, node 1, rad/s^2
         56    4.236E-04                                 F               0         SrvD Substructure StC 3 Y rotation acceleration, node 1, rad/s^2
         57    0.000E+00                                 F               0         SrvD Substructure StC 3 Z rotation acceleration, node 1, rad/s^2
         58    0.000E+00                                 F               0         ED Blade 1 X force, node 1, N
         59    0.000E+00                                 F               0         ED Blade 1 Y force, node 1, N
         60    0.000E+00                                 F               0         ED Blade 1 Z force, node 1, N
         61    0.000E+00                                 F               0         ED Blade 1 X force, node 2, N
         62    0.000E+00                                 F               0         ED Blade 1 Y force, node 2, N
         63    0.000E+00                                 F               0         ED Blade 1 Z force, node 2, N
         64    0.000E+00                                 F               0         ED Blade 1 X moment, node 1, Nm
         65    0.000E+00                                 F               0         ED Blade 1 Y moment, node 1, Nm
         66    0.000E+00                                 F               0         ED Blade 1 Z moment, node 1, Nm
         67    0.000E+00                                 F               0         ED Blade 1 X moment, node 2, Nm
         68    0.000E+00                                 F               0         ED Blade 1 Y moment, node 2, Nm
         69    0.000E+00                                 F               0         ED Blade 1 Z moment, node 2, Nm
         70    0.000E+00                                 F               0         ED Blade 2 X force, node 1, N
         71    0.000E+00                                 F               0         ED Blade 2 Y force, node 1, N
         72    0.000E+00                                 F               0         ED Blade 2 Z force, node 1, N
         73    0.000E+00                                 F               0         ED Blade 2 X force, node 2, N
         74    0.000E+00                                 F               0         ED Blade 2 Y force, node 2, N
         75    0.000E+00                                 F               0         ED Blade 2 Z force, node 2, N
         76    0.000E+00                                 F               0         ED Blade 2 X moment, node 1, Nm
         77    0.000E+00                                 F               0         ED Blade 2 Y moment, node 1, Nm
         78    0.000E+00                                 F               0         ED Blade 2 Z moment, node 1, Nm
         79    0.000E+00                                 F               0         ED Blade 2 X moment, node 2, Nm
         80    0.000E+00                                 F               0         ED Blade 2 Y moment, node 2, Nm
         81    0.000E+00                                 F               0         ED Blade 2 Z moment, node 2, Nm
         82    0.000E+00                                 F               0         ED Blade 3 X force, node 1, N
         83    0.000E+00                                 F               0         ED Blade 3 Y force, node 1, N
         84    0.000E+00                                 F               0         ED Blade 3 Z force, node 1, N
         85    0.000E+00                                 F               0         ED Blade 3 X force, node 2, N
         86    0.000E+00                                 F               0         ED Blade 3 Y force, node 2, N
         87    0.000E+00                                 F               0         ED Blade 3 Z force, node 2, N
         88    0.000E+00                                 F               0         ED Blade 3 X moment, node 1, Nm
         89    0.000E+00                                 F               0         ED Blade 3 Y moment, node 1, Nm
         90    0.000E+00                                 F               0         ED Blade 3 Z moment, node 1, Nm
         91    0.000E+00                                 F               0         ED Blade 3 X moment, node 2, Nm
         92    0.000E+00                                 F               0         ED Blade 3 Y moment, node 2, Nm
         93    0.000E+00                                 F               0         ED Blade 3 Z moment, node 2, Nm
         94    6.537E+05                                 F               0         ED Platform X force, node 1, N
         95   -3.082E+05                                 F               0         ED Platform Y force, node 1, N
         96    1.764E+08                                 F               0         ED Platform Z force, node 1, N
         97    4.327E+06                                 F               0         ED Platform X moment, node 1, Nm
         98   -1.327E+07                                 F               0         ED Platform Y moment, node 1, Nm
         99    1.816E+06                                 F               0         ED Platform Z moment, node 1, Nm
        100    0.000E+00                                 F               0         ED Tower X force, node 1, N
        101    0.000E+00                                 F               0         ED Tower Y force, node 1, N
        102    0.000E+00                                 F               0         ED Tower Z force, node 1, N
        103    0.000E+00                                 F               0         ED Tower X force, node 2, N
        104    0.000E+00                                 F               0         ED Tower Y force, node 2, N
        105    0.000E+00                                 F               0         ED Tower Z force, node 2, N
        106    0.000E+00                                 F               0         ED Tower X moment, node 1, Nm
        107    0.000E+00                                 F               0         ED Tower Y moment, node 1, Nm
        108    0.000E+00                                 F               0         ED Tower Z moment, node 1, Nm
        109    0.000E+00                                 F               0         ED Tower X moment, node 2, Nm
        110    0.000E+00                                 F               0         ED Tower Y moment, node 2, Nm
        111    0.000E+00                                 F               0         ED Tower Z moment, node 2, Nm
        112    0.000E+00                                 F               0         ED Hub X force, node 1, N
        113    0.000E+00                                 F               0         ED Hub Y force, node 1, N
        114    0.000E+00                                 F               0         ED Hub Z force, node 1, N
        115    0.000E+00                                 F               0         ED Hub X moment, node 1, Nm
        116    0.000E+00                                 F               0         ED Hub Y moment, node 1, Nm
        117    0.000E+00                                 F               0         ED Hub Z moment, node 1, Nm
        118    0.000E+00                                 F               0         ED Nacelle X force, node 1, N
        119    0.000E+00                                 F               0         ED Nacelle Y force, node 1, N
        120    0.000E+00                                 F               0         ED Nacelle Z force, node 1, N
        121    0.000E+00                                 F               0         ED Nacelle X moment, node 1, Nm
        122    0.000E+00                                 F               0         ED Nacelle Y moment, node 1, Nm
        123    0.000E+00                                 F               0         ED Nacelle Z moment, node 1, Nm
        124    0.000E+00                                 T               0         ED Blade 1 pitch command, rad
        125    0.000E+00                                 T               0         ED Blade 2 pitch command, rad
        126    0.000E+00                                 T               0         ED Blade 3 pitch command, rad
        127    0.000E+00                                 F               0         ED Yaw moment, Nm
        128   -3.978E+01                                 F               0         ED Generator torque, Nm
        129    0.000E+00                                 F               0         ED Extended input: collective blade-pitch command, rad