
Linearized model: Predictions were generated on 16-Aug-2023 at 10:12:27 using OpenFAST, compiled as a 64-bit application using single precision at commit v3.5.0
 linked with  NWTC Subroutine Library; ElastoDyn; ServoDyn; HydroDyn; MoorDyn (v2.0.0, 2022-12-08)

Description from the FAST input file: Generated with AeroElasticSE FAST driver

Simulation information:
   Simulation time:                     0.0000 s
   Rotor Speed:                         0.0000 rad/s
   Azimuth:                             0.0000 rad
   Wind Speed:                          0.0000 m/s
   Number of continuous states:       252
   Number of discrete states:           0
   Number of constraint states:         0
   Number of inputs:                    0
   Number of outputs:                  18
   Jacobians included in this file?    No

Order of continuous states:
   Row/Column Operating Point                     Rotating Frame? Derivative Order Description
   ---------- ---------------                     --------------- ---------------- -----------
          1    1.698E+02                                 F               2         Line 1 node 1 Px, m
          2   -2.774E+02                                 F               2         Line 1 node 1 Py, m
          3   -1.398E+01                                 F               2         Line 1 node 1 Pz, m
          4    1.598E+02                                 F               2         Line 1 node 2 Px, m
          5   -2.612E+02                                 F               2         Line 1 node 2 Py, m
          6   -1.397E+01                                 F               2         Line 1 node 2 Pz, m
          7    1.498E+02                                 F               2         Line 1 node 3 Px, m
          8   -2.451E+02                                 F               2         Line 1 node 3 Py, m
          9   -1.397E+01                                 F               2         Line 1 node 3 Pz, m
         10    1.398E+02                                 F               2         Line 1 node 4 Px, m
         11   -2.290E+02                                 F               2         Line 1 node 4 Py, m
         12   -1.397E+01                                 F               2         Line 1 node 4 Pz, m
         13    1.298E+02                                 F               2         Line 1 node 5 Px, m
         14   -2.128E+02                                 F               2         Line 1 node 5 Py, m
         15   -1.398E+01                                 F               2         Line 1 node 5 Pz, m
         16    1.198E+02                                 F               2         Line 1 node 6 Px, m
         17   -1.967E+02                                 F               2         Line 1 node 6 Py, m
         18   -1.400E+01                                 F               2         Line 1 node 6 Pz, m
         19    1.098E+02                                 F               2         Line 1 node 7 Px, m
         20   -1.806E+02                                 F               2         Line 1 node 7 Py, m
         21   -1.402E+01                                 F               2         Line 1 node 7 Pz, m
         22    9.980E+01                                 F               2         Line 1 node 8 Px, m
         23   -1.644E+02                                 F               2         Line 1 node 8 Py, m
         24   -1.404E+01                                 F               2         Line 1 node 8 Pz, m
         25    8.980E+01                                 F               2         Line 1 node 9 Px, m
         26   -1.483E+02                                 F               2         Line 1 node 9 Py, m
         27   -1.407E+01                                 F               2         Line 1 node 9 Pz, m
         28    7.980E+01                                 F               2         Line 1 node 10 Px, m
         29   -1.322E+02                                 F               2         Line 1 node 10 Py, m
         30   -1.410E+01                                 F               2         Line 1 node 10 Pz, m
         31    6.980E+01                                 F               2         Line 1 node 11 Px, m
         32   -1.160E+02                                 F               2         Line 1 node 11 Py, m
         33   -1.414E+01                                 F               2         Line 1 node 11 Pz, m
         34    5.980E+01                                 F               2         Line 1 node 12 Px, m
         35   -9.990E+01                                 F               2         Line 1 node 12 Py, m
         36   -1.418E+01                                 F               2         Line 1 node 12 Pz, m
         37    4.980E+01                                 F               2         Line 1 node 13 Px, m
         38   -8.377E+01                                 F               2         Line 1 node 13 Py, m
         39   -1.424E+01                                 F               2         Line 1 node 13 Pz, m
         40    3.980E+01                                 F               2         Line 1 node 14 Px, m
         41   -6.763E+01                                 F               2         Line 1 node 14 Py, m
         42   -1.429E+01                                 F               2         Line 1 node 14 Pz, m
         43    1.700E+02                                 F               2         Line 2 node 1 Px, m
         44    3.039E+02                                 F               2         Line 2 node 1 Py, m
         45   -1.397E+01                                 F               2         Line 2 node 1 Pz, m
         46    1.600E+02                                 F               2         Line 2 node 2 Px, m
         47    2.858E+02                                 F               2         Line 2 node 2 Py, m
         48   -1.395E+01                                 F               2         Line 2 node 2 Pz, m
         49    1.499E+02                                 F               2         Line 2 node 3 Px, m
         50    2.678E+02                                 F               2         Line 2 node 3 Py, m
         51   -1.393E+01                                 F               2         Line 2 node 3 Pz, m
         52    1.398E+02                                 F               2         Line 2 node 4 Px, m
         53    2.498E+02                                 F               2         Line 2 node 4 Py, m
         54   -1.393E+01                                 F               2         Line 2 node 4 Pz, m
         55    1.298E+02                                 F               2         Line 2 node 5 Px, m
         56    2.318E+02                                 F               2         Line 2 node 5 Py, m
         57   -1.393E+01                                 F               2         Line 2 node 5 Pz, m
         58    1.197E+02                                 F               2         Line 2 node 6 Px, m
         59    2.137E+02                                 F               2         Line 2 node 6 Py, m
         60   -1.395E+01                                 F               2         Line 2 node 6 Pz, m
         61    1.096E+02                                 F               2         Line 2 node 7 Px, m
         62    1.957E+02                                 F               2         Line 2 node 7 Py, m
         63   -1.397E+01                                 F               2         Line 2 node 7 Pz, m
         64    9.957E+01                                 F               2         Line 2 node 8 Px, m
         65    1.777E+02                                 F               2         Line 2 node 8 Py, m
         66   -1.399E+01                                 F               2         Line 2 node 8 Pz, m
         67    8.950E+01                                 F               2         Line 2 node 9 Px, m
         68    1.597E+02                                 F               2         Line 2 node 9 Py, m
         69   -1.402E+01                                 F               2         Line 2 node 9 Pz, m
         70    7.943E+01                                 F               2         Line 2 node 10 Px, m
         71    1.416E+02                                 F               2         Line 2 node 10 Py, m
         72   -1.405E+01                                 F               2         Line 2 node 10 Pz, m
         73    6.937E+01                                 F               2         Line 2 node 11 Px, m
         74    1.236E+02                                 F               2         Line 2 node 11 Py, m
         75   -1.410E+01                                 F               2         Line 2 node 11 Pz, m
         76    5.930E+01                                 F               2         Line 2 node 12 Px, m
         77    1.056E+02                                 F               2         Line 2 node 12 Py, m
         78   -1.415E+01                                 F               2         Line 2 node 12 Pz, m
         79    4.923E+01                                 F               2         Line 2 node 13 Px, m
         80    8.755E+01                                 F               2         Line 2 node 13 Py, m
         81   -1.421E+01                                 F               2         Line 2 node 13 Pz, m
         82    3.917E+01                                 F               2         Line 2 node 14 Px, m
         83    6.953E+01                                 F               2         Line 2 node 14 Py, m
         84   -1.428E+01                                 F               2         Line 2 node 14 Pz, m
         85   -3.995E+02                                 F               2         Line 3 node 1 Px, m
         86    1.223E+01                                 F               2         Line 3 node 1 Py, m
         87   -1.265E+01                                 F               2         Line 3 node 1 Pz, m
         88   -3.752E+02                                 F               2         Line 3 node 2 Px, m
         89    1.135E+01                                 F               2         Line 3 node 2 Py, m
         90   -1.271E+01                                 F               2         Line 3 node 2 Pz, m
         91   -3.509E+02                                 F               2         Line 3 node 3 Px, m
         92    1.048E+01                                 F               2         Line 3 node 3 Py, m
         93   -1.278E+01                                 F               2         Line 3 node 3 Pz, m
         94   -3.266E+02                                 F               2         Line 3 node 4 Px, m
         95    9.607E+00                                 F               2         Line 3 node 4 Py, m
         96   -1.287E+01                                 F               2         Line 3 node 4 Pz, m
         97   -3.023E+02                                 F               2         Line 3 node 5 Px, m
         98    8.733E+00                                 F               2         Line 3 node 5 Py, m
         99   -1.296E+01                                 F               2         Line 3 node 5 Pz, m
        100   -2.780E+02                                 F               2         Line 3 node 6 Px, m
        101    7.860E+00                                 F               2         Line 3 node 6 Py, m
        102   -1.307E+01                                 F               2         Line 3 node 6 Pz, m
        103   -2.537E+02                                 F               2         Line 3 node 7 Px, m
        104    6.987E+00                                 F               2         Line 3 node 7 Py, m
        105   -1.318E+01                                 F               2         Line 3 node 7 Pz, m
        106   -2.295E+02                                 F               2         Line 3 node 8 Px, m
        107    6.113E+00                                 F               2         Line 3 node 8 Py, m
        108   -1.330E+01                                 F               2         Line 3 node 8 Pz, m
        109   -2.052E+02                                 F               2         Line 3 node 9 Px, m
        110    5.240E+00                                 F               2         Line 3 node 9 Py, m
        111   -1.342E+01                                 F               2         Line 3 node 9 Pz, m
        112   -1.809E+02                                 F               2         Line 3 node 10 Px, m
        113    4.367E+00                                 F               2         Line 3 node 10 Py, m
        114   -1.355E+01                                 F               2         Line 3 node 10 Pz, m
        115   -1.566E+02                                 F               2         Line 3 node 11 Px, m
        116    3.493E+00                                 F               2         Line 3 node 11 Py, m
        117   -1.369E+01                                 F               2         Line 3 node 11 Pz, m
        118   -1.323E+02                                 F               2         Line 3 node 12 Px, m
        119    2.620E+00                                 F               2         Line 3 node 12 Py, m
        120   -1.384E+01                                 F               2         Line 3 node 12 Pz, m
        121   -1.080E+02                                 F               2         Line 3 node 13 Px, m
        122    1.747E+00                                 F               2         Line 3 node 13 Py, m
        123   -1.400E+01                                 F               2         Line 3 node 13 Pz, m
        124   -8.369E+01                                 F               2         Line 3 node 14 Px, m
        125    8.733E-01                                 F               2         Line 3 node 14 Py, m
        126   -1.417E+01                                 F               2         Line 3 node 14 Pz, m
        127    5.847E-04                                 F               2         Line 1 node 1 Vx, m/s
        128   -9.433E-04                                 F               2         Line 1 node 1 Vy, m/s
        129   -1.550E+00                                 F               2         Line 1 node 1 Vz, m/s
        130    1.318E-03                                 F               2         Line 1 node 2 Vx, m/s
        131   -2.126E-03                                 F               2         Line 1 node 2 Vy, m/s
        132   -3.704E+00                                 F               2         Line 1 node 2 Vz, m/s
        133    2.301E-03                                 F               2         Line 1 node 3 Vx, m/s
        134   -3.713E-03                                 F               2         Line 1 node 3 Vy, m/s
        135   -6.813E+00                                 F               2         Line 1 node 3 Vz, m/s
        136    3.763E-03                                 F               2         Line 1 node 4 Vx, m/s
        137   -6.071E-03                                 F               2         Line 1 node 4 Vy, m/s
        138   -9.786E+00                                 F               2         Line 1 node 4 Vz, m/s
        139    5.488E-03                                 F               2         Line 1 node 5 Vx, m/s
        140   -8.855E-03                                 F               2         Line 1 node 5 Vy, m/s
        141   -1.184E+01                                 F               2         Line 1 node 5 Vz, m/s
        142    7.177E-03                                 F               2         Line 1 node 6 Vx, m/s
        143   -1.158E-02                                 F               2         Line 1 node 6 Vy, m/s
        144   -1.312E+01                                 F               2         Line 1 node 6 Vz, m/s
        145    8.878E-03                                 F               2         Line 1 node 7 Vx, m/s
        146   -1.432E-02                                 F               2         Line 1 node 7 Vy, m/s
        147   -1.415E+01                                 F               2         Line 1 node 7 Vz, m/s
        148    9.975E-03                                 F               2         Line 1 node 8 Vx, m/s
        149   -1.609E-02                                 F               2         Line 1 node 8 Vy, m/s
        150   -1.415E+01                                 F               2         Line 1 node 8 Vz, m/s
        151    1.030E-02                                 F               2         Line 1 node 9 Vx, m/s
        152   -1.662E-02                                 F               2         Line 1 node 9 Vy, m/s
        153   -1.312E+01                                 F               2         Line 1 node 9 Vz, m/s
        154    1.028E-02                                 F               2         Line 1 node 10 Vx, m/s
        155   -1.658E-02                                 F               2         Line 1 node 10 Vy, m/s
        156   -1.184E+01                                 F               2         Line 1 node 10 Vz, m/s
        157    9.275E-03                                 F               2         Line 1 node 11 Vx, m/s
        158   -1.496E-02                                 F               2         Line 1 node 11 Vy, m/s
        159   -9.786E+00                                 F               2         Line 1 node 11 Vz, m/s
        160    6.776E-03                                 F               2         Line 1 node 12 Vx, m/s
        161   -1.093E-02                                 F               2         Line 1 node 12 Vy, m/s
        162   -6.813E+00                                 F               2         Line 1 node 12 Vz, m/s
        163    3.618E-03                                 F               2         Line 1 node 13 Vx, m/s
        164   -5.836E-03                                 F               2         Line 1 node 13 Vy, m/s
        165   -3.704E+00                                 F               2         Line 1 node 13 Vz, m/s
        166    1.480E-03                                 F               2         Line 1 node 14 Vx, m/s
        167   -2.388E-03                                 F               2         Line 1 node 14 Vy, m/s
        168   -1.550E+00                                 F               2         Line 1 node 14 Vz, m/s
        169    3.564E-05                                 F               2         Line 2 node 1 Vx, m/s
        170    6.381E-05                                 F               2         Line 2 node 1 Vy, m/s
        171   -2.636E+00                                 F               2         Line 2 node 1 Vz, m/s
        172    2.935E-04                                 F               2         Line 2 node 2 Vx, m/s
        173    5.256E-04                                 F               2         Line 2 node 2 Vy, m/s
        174   -5.464E+00                                 F               2         Line 2 node 2 Vz, m/s
        175    1.253E-03                                 F               2         Line 2 node 3 Vx, m/s
        176    2.244E-03                                 F               2         Line 2 node 3 Vy, m/s
        177   -7.842E+00                                 F               2         Line 2 node 3 Vz, m/s
        178    2.756E-03                                 F               2         Line 2 node 4 Vx, m/s
        179    4.936E-03                                 F               2         Line 2 node 4 Vy, m/s
        180   -1.032E+01                                 F               2         Line 2 node 4 Vz, m/s
        181    4.812E-03                                 F               2         Line 2 node 5 Vx, m/s
        182    8.617E-03                                 F               2         Line 2 node 5 Vy, m/s
        183   -1.340E+01                                 F               2         Line 2 node 5 Vz, m/s
        184    7.306E-03                                 F               2         Line 2 node 6 Vx, m/s
        185    1.308E-02                                 F               2         Line 2 node 6 Vy, m/s
        186   -1.639E+01                                 F               2         Line 2 node 6 Vz, m/s
        187    9.419E-03                                 F               2         Line 2 node 7 Vx, m/s
        188    1.687E-02                                 F               2         Line 2 node 7 Vy, m/s
        189   -1.789E+01                                 F               2         Line 2 node 7 Vz, m/s
        190    1.086E-02                                 F               2         Line 2 node 8 Vx, m/s
        191    1.944E-02                                 F               2         Line 2 node 8 Vy, m/s
        192   -1.789E+01                                 F               2         Line 2 node 8 Vz, m/s
        193    1.128E-02                                 F               2         Line 2 node 9 Vx, m/s
        194    2.019E-02                                 F               2         Line 2 node 9 Vy, m/s
        195   -1.639E+01                                 F               2         Line 2 node 9 Vz, m/s
        196    1.037E-02                                 F               2         Line 2 node 10 Vx, m/s
        197    1.858E-02                                 F               2         Line 2 node 10 Vy, m/s
        198   -1.340E+01                                 F               2         Line 2 node 10 Vz, m/s
        199    8.945E-03                                 F               2         Line 2 node 11 Vx, m/s
        200    1.602E-02                                 F               2         Line 2 node 11 Vy, m/s
        201   -1.032E+01                                 F               2         Line 2 node 11 Vz, m/s
        202    7.636E-03                                 F               2         Line 2 node 12 Vx, m/s
        203    1.367E-02                                 F               2         Line 2 node 12 Vy, m/s
        204   -7.842E+00                                 F               2         Line 2 node 12 Vz, m/s
        205    5.900E-03                                 F               2         Line 2 node 13 Vx, m/s
        206    1.056E-02                                 F               2         Line 2 node 13 Vy, m/s
        207   -5.464E+00                                 F               2         Line 2 node 13 Vz, m/s
        208    2.952E-03                                 F               2         Line 2 node 14 Vx, m/s
        209    5.286E-03                                 F               2         Line 2 node 14 Vy, m/s
        210   -2.636E+00                                 F               2         Line 2 node 14 Vz, m/s
        211    1.423E-02                                 F               2         Line 3 node 1 Vx, m/s
        212   -5.114E-04                                 F               2         Line 3 node 1 Vy, m/s
        213    4.509E+00                                 F               2         Line 3 node 1 Vz, m/s
        214    2.975E-02                                 F               2         Line 3 node 2 Vx, m/s
        215   -1.069E-03                                 F               2         Line 3 node 2 Vy, m/s
        216    8.808E+00                                 F               2         Line 3 node 2 Vz, m/s
        217    4.806E-02                                 F               2         Line 3 node 3 Vx, m/s
        218   -1.728E-03                                 F               2         Line 3 node 3 Vy, m/s
        219    1.339E+01                                 F               2         Line 3 node 3 Vz, m/s
        220    6.207E-02                                 F               2         Line 3 node 4 Vx, m/s
        221   -2.231E-03                                 F               2         Line 3 node 4 Vy, m/s
        222    1.606E+01                                 F               2         Line 3 node 4 Vz, m/s
        223    6.842E-02                                 F               2         Line 3 node 5 Vx, m/s
        224   -2.460E-03                                 F               2         Line 3 node 5 Vy, m/s
        225    1.653E+01                                 F               2         Line 3 node 5 Vz, m/s
        226    7.181E-02                                 F               2         Line 3 node 6 Vx, m/s
        227   -2.581E-03                                 F               2         Line 3 node 6 Vy, m/s
        228    1.628E+01                                 F               2         Line 3 node 6 Vz, m/s
        229    7.601E-02                                 F               2         Line 3 node 7 Vx, m/s
        230   -2.732E-03                                 F               2         Line 3 node 7 Vy, m/s
        231    1.622E+01                                 F               2         Line 3 node 7 Vz, m/s
        232    8.047E-02                                 F               2         Line 3 node 8 Vx, m/s
        233   -2.893E-03                                 F               2         Line 3 node 8 Vy, m/s
        234    1.622E+01                                 F               2         Line 3 node 8 Vz, m/s
        235    8.522E-02                                 F               2         Line 3 node 9 Vx, m/s
        236   -3.064E-03                                 F               2         Line 3 node 9 Vy, m/s
        237    1.628E+01                                 F               2         Line 3 node 9 Vz, m/s
        238    9.103E-02                                 F               2         Line 3 node 10 Vx, m/s
        239   -3.273E-03                                 F               2         Line 3 node 10 Vy, m/s
        240    1.653E+01                                 F               2         Line 3 node 10 Vz, m/s
        241    9.290E-02                                 F               2         Line 3 node 11 Vx, m/s
        242   -3.340E-03                                 F               2         Line 3 node 11 Vy, m/s
        243    1.606E+01                                 F               2         Line 3 node 11 Vz, m/s
        244    8.114E-02                                 F               2         Line 3 node 12 Vx, m/s
        245   -2.917E-03                                 F               2         Line 3 node 12 Vy, m/s
        246    1.339E+01                                 F               2         Line 3 node 12 Vz, m/s
        247    5.522E-02                                 F               2         Line 3 node 13 Vx, m/s
        248   -1.985E-03                                 F               2         Line 3 node 13 Vy, m/s
        249    8.807E+00                                 F               2         Line 3 node 13 Vz, m/s
        250    2.927E-02                                 F               2         Line 3 node 14 Vx, m/s
        251   -1.052E-03                                 F               2         Line 3 node 14 Vy, m/s
        252    4.509E+00                                 F               2         Line 3 node 14 Vz, m/s

Order of continuous state derivatives:
   Row/Column Operating Point                     Rotating Frame? Derivative Order Description
   ---------- ---------------                     --------------- ---------------- -----------
          1    5.847E-04                                 F               2         First time derivative of Line 1 node 1 Px, m/s
          2   -9.433E-04                                 F               2         First time derivative of Line 1 node 1 Py, m/s
          3   -1.550E+00                                 F               2         First time derivative of Line 1 node 1 Pz, m/s
          4    1.318E-03                                 F               2         First time derivative of Line 1 node 2 Px, m/s
          5   -2.126E-03                                 F               2         First time derivative of Line 1 node 2 Py, m/s
          6   -3.704E+00                                 F               2         First time derivative of Line 1 node 2 Pz, m/s
          7    2.301E-03                                 F               2         First time derivative of Line 1 node 3 Px, m/s
          8   -3.713E-03                                 F               2         First time derivative of Line 1 node 3 Py, m/s
          9   -6.813E+00                                 F               2         First time derivative of Line 1 node 3 Pz, m/s
         10    3.763E-03                                 F               2         First time derivative of Line 1 node 4 Px, m/s
         11   -6.071E-03                                 F               2         First time derivative of Line 1 node 4 Py, m/s
         12   -9.786E+00                                 F               2         First time derivative of Line 1 node 4 Pz, m/s
         13    5.488E-03                                 F               2         First time derivative of Line 1 node 5 Px, m/s
         14   -8.855E-03                                 F               2         First time derivative of Line 1 node 5 Py, m/s
         15   -1.184E+01                                 F               2         First time derivative of Line 1 node 5 Pz, m/s
         16    7.177E-03                                 F               2         First time derivative of Line 1 node 6 Px, m/s
         17   -1.158E-02                                 F               2         First time derivative of Line 1 node 6 Py, m/s
         18   -1.312E+01                                 F               2         First time derivative of Line 1 node 6 Pz, m/s