
Linearized model: Predictions were generated on 16-Aug-2023 at 10:12:27 using OpenFAST, compiled as a 64-bit application using single precision at commit v3.5.0
 linked with  NWTC Subroutine Library; ElastoDyn; ServoDyn; HydroDyn; MoorDyn (v2.0.0, 2022-12-08)

Description from the FAST input file: Generated with AeroElasticSE FAST driver

Simulation information:
   Simulation time:                     0.0000 s
   Rotor Speed:                         0.0000 rad/s
   Azimuth:                             0.0000 rad
   Wind Speed:                          0.0000 m/s
   Number of continuous states:        18
   Number of discrete states:           0
   Number of constraint states:         0
   Number of inputs:                    6
   Number of outputs:                 756
   Jacobians included in this file?    No

Order of continuous states:
   Row/Column Operating Point                     Rotating Frame? Derivative Order Description
   ---------- ---------------                     --------------- ---------------- -----------
          1    0.000E+00                                 F               2         Platform horizontal surge translation DOF (internal DOF index = DOF_Sg), m
          2    0.000E+00                                 F               2         Platform horizontal sway translation DOF (internal DOF index = DOF_Sw), m
          3    0.000E+00                                 F               2         Platform vertical heave translation DOF (internal DOF index = DOF_Hv), m
          4    0.000E+00                                 F               2         Platform roll tilt rotation DOF (internal DOF index = DOF_R), rad
          5    0.000E+00                                 F               2         Platform pitch tilt rotation DOF (internal DOF index = DOF_P), rad
          6    0.000E+00                                 F               2         1st tower fore-aft bending mode DOF (internal DOF index = DOF_TFA1), m
          7    0.000E+00                                 F               2         1st tower side-to-side bending mode DOF (internal DOF index = DOF_TSS1), m
          8    0.000E+00                                 F               2         2nd tower fore-aft bending mode DOF (internal DOF index = DOF_TFA2), m
          9    0.000E+00                                 F               2         2nd tower side-to-side bending mode DOF (internal DOF index = DOF_TSS2), m
         10    0.000E+00                                 F               2         First time derivative of Platform horizontal surge translation DOF (internal DOF index = DOF_Sg), m/s
         11    0.000E+00                                 F               2         First time derivative of Platform horizontal sway translation DOF (internal DOF index = DOF_Sw), m/s
         12    0.000E+00                                 F               2         First time derivative of Platform vertical heave translation DOF (internal DOF index = DOF_Hv), m/s
         13    0.000E+00                                 F               2         First time derivative of Platform roll tilt rotation DOF (internal DOF index = DOF_R), rad/s
         14    0.000E+00                                 F               2         First time derivative of Platform pitch tilt rotation DOF (internal DOF index = DOF_P), rad/s
         15    0.000E+00                                 F               2         First time derivative of 1st tower fore-aft bending mode DOF (internal DOF index = DOF_TFA1), m/s
         16    0.000E+00                                 F               2         First time derivative of 1st tower side-to-side bending mode DOF (internal DOF index = DOF_TSS1), m/s
         17    0.000E+00                                 F               2         First time derivative of 2nd tower fore-aft bending mode DOF (internal DOF index = DOF_TFA2), m/s
         18    0.000E+00                                 F               2         First time derivative of 2nd tower side-to-side bending mode DOF (internal DOF index = DOF_TSS2), m/s

Order of continuous state derivatives:
   Row/Column Operating Point                     Rotating Frame? Derivative Order Description
   ---------- ---------------                     --------------- ---------------- -----------
          1    0.000E+00                                 F               2         First time derivative of Platform horizontal surge translation DOF (internal DOF index = DOF_Sg), m/s
          2    0.000E+00                                 F               2         First time derivative of Platform horizontal sway translation DOF (internal DOF index = DOF_Sw), m/s
          3    0.000E+00                                 F               2         First time derivative of Platform vertical heave translation DOF (internal DOF index = DOF_Hv), m/s
          4    0.000E+00                                 F               2         First time derivative of Platform roll tilt rotation DOF (internal DOF index = DOF_R), rad/s
          5    0.000E+00                                 F               2         First time derivative of Platform pitch tilt rotation DOF (internal DOF index = DOF_P), rad/s
          6    0.000E+00                                 F               2         First time derivative of 1st tower fore-aft bending mode DOF (internal DOF index = DOF_TFA1), m/s
          7    0.000E+00                                 F               2         First time derivative of 1st tower side-to-side bending mode DOF (internal DOF index = DOF_TSS1), m/s
          8    0.000E+00                                 F               2         First time derivative of 2nd tower fore-aft bending mode DOF (internal DOF index = DOF_TFA2), m/s
          9    0.000E+00                                 F               2         First time derivative of 2nd tower side-to-side bending mode DOF (internal DOF index = DOF_TSS2), m/s
         10    1.136E-02                                 F               2         First time derivative of First time derivative of Platform horizontal surge translation DOF (internal DOF index = DOF_Sg), m/s/s
         11   -4.798E-03                                 F               2         First time derivative of First time derivative of Platform horizontal sway translation DOF (internal DOF index = DOF_Sw), m/s/s
         12    3.025E-02                                 F               2         First time derivative of First time derivative of Platform vertical heave translation DOF (internal DOF index = DOF_Hv), m/s/s
         13   -9.061E-04                                 F               2         First time derivative of First time derivative of Platform roll tilt rotation DOF (internal DOF index = DOF_R), rad/s/s
         14    3.983E-04                                 F               2         First time derivative of First time derivative of Platform pitch tilt rotation DOF (internal DOF index = DOF_P), rad/s/s
         15   -5.084E-01                                 F               2         First time derivative of First time derivative of 1st tower fore-aft bending mode DOF (internal DOF index = DOF_TFA1), m/s/s
         16    1.219E-01                                 F               2         First time derivative of First time derivative of 1st tower side-to-side bending mode DOF (internal DOF index = DOF_TSS1), m/s/s
         17    9.303E-01                                 F               2         First time derivative of First time derivative of 2nd tower fore-aft bending mode DOF (internal DOF index = DOF_TFA2), m/s/s
         18    3.761E-03                                 F               2         First time derivative of First time derivative of 2nd tower side-to-side bending mode DOF (internal DOF index = DOF_TSS2), m/s/s

Order of inputs:
     Column   Operating Point                     Rotating Frame? Derivative Order Description
   ---------- ---------------                     --------------- ---------------- -----------
          1    0.000E+00                                 T               0         Blade 1 pitch command, rad
          2    0.000E+00                                 T               0         Blade 2 pitch command, rad
          3    0.000E+00                                 T               0         Blade 3 pitch command, rad
          4    0.000E+00                                 F               0         Yaw moment, Nm
          5   -3.978E+01                                 F               0         Generator torque, Nm
          6    0.000E+00                                 F               0         Extended input: collective blade-pitch command, rad

Order of outputs:
        Row   Operating Point                     Rotating Frame? Derivative Order Description
   ---------- ---------------                     --------------- ---------------- -----------
          1    0.000E+00                                 F               0         Blade 1 X translation displacement, node 1, m
          2   -1.035E-23                                 F               0         Blade 1 Y translation displacement, node 1, m
          3    0.000E+00                                 F               0         Blade 1 Z translation displacement, node 1, m
          4    0.000E+00                                 F               0         Blade 1 X translation displacement, node 2, m
          5   -9.429E-24                                 F               0         Blade 1 Y translation displacement, node 2, m
          6    0.000E+00                                 F               0         Blade 1 Z translation displacement, node 2, m
          7    0.000E+00                                 F               0         Blade 1 X translation displacement, node 3, m
          8   -4.325E-22                                 F               0         Blade 1 Y translation displacement, node 3, m
          9   -1.526E-05                                 F               0         Blade 1 Z translation displacement, node 3, m
         10    0.000E+00                                 F               0         Blade 1 X translation displacement, node 4, m
         11   -1.081E-23                                 F               0         Blade 1 Y translation displacement, node 4, m
         12    0.000E+00                                 F               0         Blade 1 Z translation displacement, node 4, m
         13    1.000E+00,  0.000E+00,  0.000E+00         F               0         Blade 1 X orientation angle, node 1, rad
         14    0.000E+00,  1.000E+00, -1.837E-16         F               0         Blade 1 Y orientation angle, node 1, rad
         15    0.000E+00,  1.837E-16,  1.000E+00         F               0         Blade 1 Z orientation angle, node 1, rad
         16    1.000E+00,  0.000E+00,  0.000E+00         F               0         Blade 1 X orientation angle, node 2, rad
         17    0.000E+00,  1.000E+00, -1.837E-16         F               0         Blade 1 Y orientation angle, node 2, rad
         18    0.000E+00,  1.837E-16,  1.000E+00         F               0         Blade 1 Z orientation angle, node 2, rad
         19    1.000E+00,  0.000E+00,  0.000E+00         F               0         Blade 1 X orientation angle, node 3, rad
         20    0.000E+00,  1.000E+00, -1.837E-16         F               0         Blade 1 Y orientation angle, node 3, rad
         21    0.000E+00,  1.837E-16,  1.000E+00         F               0         Blade 1 Z orientation angle, node 3, rad
         22    1.000E+00,  0.000E+00,  0.000E+00         F               0         Blade 1 X orientation angle, node 4, rad
         23    0.000E+00,  1.000E+00, -1.837E-16         F               0         Blade 1 Y orientation angle, node 4, rad
         24    0.000E+00,  1.837E-16,  1.000E+00         F               0         Blade 1 Z orientation angle, node 4, rad
         25    0.000E+00                                 F               0         Blade 1 X translation velocity, node 1, m/s
         26    0.000E+00                                 F               0         Blade 1 Y translation velocity, node 1, m/s
         27    0.000E+00                                 F               0         Blade 1 Z translation velocity, node 1, m/s
         28    0.000E+00                                 F               0         Blade 1 X translation velocity, node 2, m/s
         29    0.000E+00                                 F               0         Blade 1 Y translation velocity, node 2, m/s
         30    0.000E+00                                 F               0         Blade 1 Z translation velocity, node 2, m/s
         31    0.000E+00                                 F               0         Blade 1 X translation velocity, node 3, m/s
         32    0.000E+00                                 F               0         Blade 1 Y translation velocity, node 3, m/s
         33    0.000E+00                                 F               0         Blade 1 Z translation velocity, node 3, m/s
         34    0.000E+00                                 F               0         Blade 1 X translation velocity, node 4, m/s
         35    0.000E+00                                 F               0         Blade 1 Y translation velocity, node 4, m/s
         36    0.000E+00                                 F               0         Blade 1 Z translation velocity, node 4, m/s
         37    0.000E+00                                 F               0         Blade 1 X rotation velocity, node 1, rad/s
         38    0.000E+00                                 F               0         Blade 1 Y rotation velocity, node 1, rad/s
         39    0.000E+00                                 F               0         Blade 1 Z rotation velocity, node 1, rad/s
         40    0.000E+00                                 F               0         Blade 1 X rotation velocity, node 2, rad/s
         41    0.000E+00                                 F               0         Blade 1 Y rotation velocity, node 2, rad/s
         42    0.000E+00                                 F               0         Blade 1 Z rotation velocity, node 2, rad/s
         43    0.000E+00                                 F               0         Blade 1 X rotation velocity, node 3, rad/s
         44    0.000E+00                                 F               0         Blade 1 Y rotation velocity, node 3, rad/s
         45    0.000E+00                                 F               0         Blade 1 Z rotation velocity, node 3, rad/s
         46    0.000E+00                                 F               0         Blade 1 X rotation velocity, node 4, rad/s
         47    0.000E+00                                 F               0         Blade 1 Y rotation velocity, node 4, rad/s
         48    0.000E+00                                 F               0         Blade 1 Z rotation velocity, node 4, rad/s
         49   -6.567E+00                                 F               0         Blade 1 X translation acceleration, node 1, m/s^2
         50    8.608E-03                                 F               0         Blade 1 Y translation acceleration, node 1, m/s^2
         51    3.025E-02                                 F               0         Blade 1 Z translation acceleration, node 1, m/s^2
         52   -1.937E+01                                 F               0         Blade 1 X translation acceleration, node 2, m/s^2
         53    2.764E-02                                 F               0         Blade 1 Y translation acceleration, node 2, m/s^2
         54    3.025E-02                                 F               0         Blade 1 Z translation acceleration, node 2, m/s^2
         55   -2.577E+01                                 F               0         Blade 1 X translation acceleration, node 3, m/s^2
         56    3.716E-02                                 F               0         Blade 1 Y translation acceleration, node 3, m/s^2
         57    3.025E-02                                 F               0         Blade 1 Z translation acceleration, node 3, m/s^2
         58   -1.667E-01                                 F               0         Blade 1 X translation acceleration, node 4, m/s^2
         59   -9.084E-04                                 F               0         Blade 1 Y translation acceleration, node 4, m/s^2
         60    3.025E-02                                 F               0         Blade 1 Z translation acceleration, node 4, m/s^2
         61   -3.254E-04                                 F               0         Blade 1 X rotation acceleration, node 1, rad/s^2
         62   -2.188E-01                                 F               0         Blade 1 Y rotation acceleration, node 1, rad/s^2
         63    0.000E+00                                 F               0         Blade 1 Z rotation acceleration, node 1, rad/s^2
         64   -3.254E-04                                 F               0         Blade 1 X rotation acceleration, node 2, rad/s^2
         65   -2.188E-01                                 F               0         Blade 1 Y rotation acceleration, node 2, rad/s^2
         66    0.000E+00                                 F               0         Blade 1 Z rotation acceleration, node 2, rad/s^2
         67   -3.254E-04                                 F               0         Blade 1 X rotation acceleration, node 3, rad/s^2
         68   -2.188E-01                                 F               0         Blade 1 Y rotation acceleration, node 3, rad/s^2
         69    0.000E+00                                 F               0         Blade 1 Z rotation acceleration, node 3, rad/s^2
         70   -3.254E-04                                 F               0         Blade 1 X rotation acceleration, node 4, rad/s^2
         71   -2.188E-01                                 F               0         Blade 1 Y rotation acceleration, node 4, rad/s^2
         72    0.000E+00                                 F               0         Blade 1 Z rotation acceleration, node 4, rad/s^2
         73    0.000E+00                                 F               0         Blade 2 X translation displacement, node 1, m
         74    1.097E-07                                 F               0         Blade 2 Y translation displacement, node 1, m
         75    1.421E-14                                 F               0         Blade 2 Z translation displacement, node 1, m
         76    0.000E+00                                 F               0         Blade 2 X translation displacement, node 2, m
         77   -8.890E-07                                 F               0         Blade 2 Y translation displacement, node 2, m
         78    2.842E-14                                 F               0         Blade 2 Z translation displacement, node 2, m
         79    0.000E+00                                 F               0         Blade 2 X translation displacement, node 3, m
         80    1.473E-06                                 F               0         Blade 2 Y translation displacement, node 3, m
         81    4.263E-14                                 F               0         Blade 2 Z translation displacement, node 3, m
         82    0.000E+00                                 F               0         Blade 2 X translation displacement, node 4, m
         83   -1.062E-07                                 F               0         Blade 2 Y translation displacement, node 4, m
         84    0.000E+00                                 F               0         Blade 2 Z translation displacement, node 4, m
         85    1.000E+00,  0.000E+00,  0.000E+00         F               0         Blade 2 X orientation angle, node 1, rad
         86    0.000E+00, -5.000E-01,  8.660E-01         F               0         Blade 2 Y orientation angle, node 1, rad
         87    0.000E+00, -8.660E-01, -5.000E-01         F               0         Blade 2 Z orientation angle, node 1, rad
         88    1.000E+00,  0.000E+00,  0.000E+00         F               0         Blade 2 X orientation angle, node 2, rad
         89    0.000E+00, -5.000E-01,  8.660E-01         F               0         Blade 2 Y orientation angle, node 2, rad
         90    0.000E+00, -8.660E-01, -5.000E-01         F               0         Blade 2 Z orientation angle, node 2, rad
         91    1.000E+00,  0.000E+00,  0.000E+00         F               0         Blade 2 X orientation angle, node 3, rad
         92    0.000E+00, -5.000E-01,  8.660E-01         F               0         Blade 2 Y orientation angle, node 3, rad
         93    0.000E+00, -8.660E-01, -5.000E-01         F               0         Blade 2 Z orientation angle, node 3, rad
         94    1.000E+00,  0.000E+00,  0.000E+00         F               0         Blade 2 X orientation angle, node 4, rad
         95    0.000E+00, -5.000E-01,  8.660E-01         F               0         Blade 2 Y orientation angle, node 4, rad
         96    0.000E+00, -8.660E-01, -5.000E-01         F               0         Blade 2 Z orientation angle, node 4, rad
         97    0.000E+00                                 F               0         Blade 2 X translation velocity, node 1, m/s
         98    0.000E+00                                 F               0         Blade 2 Y translation velocity, node 1, m/s
         99    0.000E+00                                 F               0         Blade 2 Z translation velocity, node 1, m/s
        100    0.000E+00                                 F               0         Blade 2 X translation velocity, node 2, m/s
        101    0.000E+00                                 F               0         Blade 2 Y translation velocity, node 2, m/s
        102    0.000E+00                                 F               0         Blade 2 Z translation velocity, node 2, m/s
        103    0.000E+00                                 F               0         Blade 2 X translation velocity, node 3, m/s
        104    0.000E+00                                 F               0         Blade 2 Y translation velocity, node 3, m/s
        105    0.000E+00                                 F               0         Blade 2 Z translation velocity, node 3, m/s
        106    0.000E+00                                 F               0         Blade 2 X translation velocity, node 4, m/s
        107    0.000E+00                                 F               0         Blade 2 Y translation velocity, node 4, m/s
        108    0.000E+00                                 F               0         Blade 2 Z translation velocity, node 4, m/s
        109    0.000E+00                                 F               0         Blade 2 X rotation velocity, node 1, rad/s
        110    0.000E+00                                 F               0         Blade 2 Y rotation velocity, node 1, rad/s
        111    0.000E+00                                 F               0         Blade 2 Z rotation velocity, node 1, rad/s
        112    0.000E+00                                 F               0         Blade 2 X rotation velocity, node 2, rad/s
        113    0.000E+00                                 F               0         Blade 2 Y rotation velocity, node 2, rad/s
        114    0.000E+00                                 F               0         Blade 2 Z rotation velocity, node 2, rad/s
        115    0.000E+00                                 F               0         Blade 2 X rotation velocity, node 3, rad/s
        116    0.000E+00                                 F               0         Blade 2 Y rotation velocity, node 3, rad/s
        117    0.000E+00                                 F               0         Blade 2 Z rotation velocity, node 3, rad/s
        118    0.000E+00                                 F               0         Blade 2 X rotation velocity, node 4, rad/s
        119    0.000E+00                                 F               0         Blade 2 Y rotation velocity, node 4, rad/s
        120    0.000E+00                                 F               0         Blade 2 Z rotation velocity, node 4, rad/s
        121    4.018E+00                                 F               0         Blade 2 X translation acceleration, node 1, m/s^2
        122   -7.131E-03                                 F               0         Blade 2 Y translation acceleration, node 1, m/s^2
        123    3.934E-02                                 F               0         Blade 2 Z translation acceleration, node 1, m/s^2
        124    1.042E+01                                 F               0         Blade 2 X translation acceleration, node 2, m/s^2
        125   -1.665E-02                                 F               0         Blade 2 Y translation acceleration, node 2, m/s^2
        126    5.582E-02                                 F               0         Blade 2 Z translation acceleration, node 2, m/s^2
        127    1.362E+01                                 F               0         Blade 2 X translation acceleration, node 3, m/s^2
        128   -2.141E-02                                 F               0         Blade 2 Y translation acceleration, node 3, m/s^2
        129    6.406E-02                                 F               0         Blade 2 Z translation acceleration, node 3, m/s^2
        130    8.180E-01                                 F               0         Blade 2 X translation acceleration, node 4, m/s^2
        131   -2.372E-03                                 F               0         Blade 2 Y translation acceleration, node 4, m/s^2
        132    3.109E-02                                 F               0         Blade 2 Z translation acceleration, node 4, m/s^2
        133   -3.254E-04                                 F               0         Blade 2 X rotation acceleration, node 1, rad/s^2
        134   -2.188E-01                                 F               0         Blade 2 Y rotation acceleration, node 1, rad/s^2
        135    0.000E+00                                 F               0         Blade 2 Z rotation acceleration, node 1, rad/s^2
        136   -3.254E-04                                 F               0         Blade 2 X rotation acceleration, node 2, rad/s^2
        137   -2.188E-01                                 F               0         Blade 2 Y rotation acceleration, node 2, rad/s^2
        138    0.000E+00                                 F               0         Blade 2 Z rotation acceleration, node 2, rad/s^2
        139   -3.254E-04                                 F               0         Blade 2 X rotation acceleration, node 3, rad/s^2
        140   -2.188E-01                                 F               0         Blade 2 Y rotation acceleration, node 3, rad/s^2
        141    0.000E+00                                 F               0         Blade 2 Z rotation acceleration, node 3, rad/s^2
        142   -3.254E-04                                 F               0         Blade 2 X rotation acceleration, node 4, rad/s^2
        143   -2.188E-01                                 F               0         Blade 2 Y rotation acceleration, node 4, rad/s^2
        144    0.000E+00                                 F               0         Blade 2 Z rotation acceleration, node 4, rad/s^2
        145    0.000E+00                                 F               0         Blade 3 X translation displacement, node 1, m
        146   -1.097E-07                                 F               0         Blade 3 Y translation displacement, node 1, m
        147   -1.421E-14                                 F               0         Blade 3 Z translation displacement, node 1, m
        148    0.000E+00                                 F               0         Blade 3 X translation displacement, node 2, m
        149    8.890E-07                                 F               0         Blade 3 Y translation displacement, node 2, m
        150   -5.684E-14                                 F               0         Blade 3 Z translation displacement, node 2, m
        151    0.000E+00                                 F               0         Blade 3 X translation displacement, node 3, m
        152   -1.473E-06                                 F               0         Blade 3 Y translation displacement, node 3, m
        153   -5.684E-14                                 F               0         Blade 3 Z translation displacement, node 3, m
        154    0.000E+00                                 F               0         Blade 3 X translation displacement, node 4, m
        155    1.062E-07                                 F               0         Blade 3 Y translation displacement, node 4, m
        156    0.000E+00                                 F               0         Blade 3 Z translation displacement, node 4, m
        157    1.000E+00,  0.000E+00,  0.000E+00         F               0         Blade 3 X orientation angle, node 1, rad
        158    0.000E+00, -5.000E-01, -8.660E-01         F               0         Blade 3 Y orientation angle, node 1, rad
        159    0.000E+00,  8.660E-01, -5.000E-01         F               0         Blade 3 Z orientation angle, node 1, rad
        160    1.000E+00,  0.000E+00,  0.000E+00         F               0         Blade 3 X orientation angle, node 2, rad
        161    0.000E+00, -5.000E-01, -8.660E-01         F               0         Blade 3 Y orientation angle, node 2, rad
        162    0.000E+00,  8.660E-01, -5.000E-01         F               0         Blade 3 Z orientation angle, node 2, rad
        163    1.000E+00,  0.000E+00,  0.000E+00         F               0         Blade 3 X orientation angle, node 3, rad
        164    0.000E+00, -5.000E-01, -8.660E-01         F               0         Blade 3 Y orientation angle, node 3, rad