
Predictions were generated on 16-Aug-2023 at 10:12:27 using OpenFAST, compiled as a 64-bit application using single precision at commit v3.5.0
 linked with  NWTC Subroutine Library; ElastoDyn; ServoDyn; HydroDyn; MoorDyn (v2.0.0, 2022-12-08)

Description from the FAST input file: Generated with AeroElasticSE FAST driver

Time	PtfmSurge	PtfmSway	PtfmHeave	PtfmRoll	PtfmPitch	PtfmYaw	PtfmRAyi	PtfmRAzi	PtfmTAxi	PtfmTAyi	PtfmTAzi	TTDspFA	TTDspSS	TwHt1ALxt	TwHt1ALyt	TwrBsFxt	TwrBsFyt	TwrBsFzt	TwrBsMxt	TwrBsMyt	TwrBsMzt	YawBrTAxp	YawBrTAyp	YawBrTAzp	SStC1_zQ	SStC1_ZQD	SStC1_Fzl	SStC2_zQ	SStC2_ZQD	SStC2_Fzl	SStC3_zQ	SStC3_ZQD	SStC3_Fzl
(s)	(m)	(m)	(m)	(deg)	(deg)	(deg)	(deg/s^2)	(deg/s^2)	(m/s^2)	(m/s^2)	(m/s^2)	(m)	(m)	(m/s^2)	(m/s^2)	(kN)	(kN)	(kN)	(kN-m)	(kN-m)	(kN-m)	(m/s^2)	(m/s^2)	(m/s^2)	(m)	(m/s)	(kN)	(m)	(m/s)	(kN)	(m)	(m/s)	(kN)
    0.0000	 0.000E+00	 0.000E+00	 0.000E+00	 0.000E+00	 0.000E+00	 0.000E+00	 2.282E-02	 0.000E+00	 1.136E-02	-4.798E-03	 3.025E-02	 0.000E+00	 0.000E+00	 5.293E-02	 1.422E-02	-5.642E+02	-2.531E+00	-1.537E+04	 3.277E+01	-1.295E+04	 2.221E+00	 4.897E-01	-1.884E-03	 3.025E-02	 0.000E+00	 0.000E+00	-6.727E+03	 0.000E+00	 0.000E+00	-6.727E+03	 0.000E+00	 0.000E+00	-6.727E+03
