
Linearized model: Predictions were generated on 19-Aug-2023 at 15:10:59 using OpenFAST, compiled as a 64-bit application using single precision at commit v3.5.0
 linked with  NWTC Subroutine Library; ElastoDyn; HydroDyn; MoorDyn (v2.0.0, 2022-12-08)

Description from the FAST input file: Generated with AeroElasticSE FAST driver

Simulation information:
   Simulation time:                     0.0000 s
   Rotor Speed:                         0.0000 rad/s
   Azimuth:                             0.0000 rad
   Wind Speed:                          0.0000 m/s
   Number of continuous states:        20
   Number of discrete states:           0
   Number of constraint states:         0
   Number of inputs:                  163
   Number of outputs:                   7
   Jacobians included in this file?    No

Order of continuous states:
   Row/Column Operating Point                     Rotating Frame? Derivative Order Description
   ---------- ---------------                     --------------- ---------------- -----------
          1    0.000E+00                                 F               2         ED Platform horizontal surge translation DOF (internal DOF index = DOF_Sg), m
          2    0.000E+00                                 F               2         ED Platform horizontal sway translation DOF (internal DOF index = DOF_Sw), m
          3    0.000E+00                                 F               2         ED Platform vertical heave translation DOF (internal DOF index = DOF_Hv), m
          4    0.000E+00                                 F               2         ED Platform roll tilt rotation DOF (internal DOF index = DOF_R), rad
          5    0.000E+00                                 F               2         ED Platform pitch tilt rotation DOF (internal DOF index = DOF_P), rad
          6    0.000E+00                                 F               2         ED Platform yaw rotation DOF (internal DOF index = DOF_Y), rad
          7    0.000E+00                                 F               2         ED 1st tower fore-aft bending mode DOF (internal DOF index = DOF_TFA1), m
          8    0.000E+00                                 F               2         ED 1st tower side-to-side bending mode DOF (internal DOF index = DOF_TSS1), m
          9    0.000E+00                                 F               2         ED 2nd tower fore-aft bending mode DOF (internal DOF index = DOF_TFA2), m
         10    0.000E+00                                 F               2         ED 2nd tower side-to-side bending mode DOF (internal DOF index = DOF_TSS2), m
         11    0.000E+00                                 F               2         ED First time derivative of Platform horizontal surge translation DOF (internal DOF index = DOF_Sg), m/s
         12    0.000E+00                                 F               2         ED First time derivative of Platform horizontal sway translation DOF (internal DOF index = DOF_Sw), m/s
         13    0.000E+00                                 F               2         ED First time derivative of Platform vertical heave translation DOF (internal DOF index = DOF_Hv), m/s
         14    0.000E+00                                 F               2         ED First time derivative of Platform roll tilt rotation DOF (internal DOF index = DOF_R), rad/s
         15    0.000E+00                                 F               2         ED First time derivative of Platform pitch tilt rotation DOF (internal DOF index = DOF_P), rad/s
         16    0.000E+00                                 F               2         ED First time derivative of Platform yaw rotation DOF (internal DOF index = DOF_Y), rad/s
         17    0.000E+00                                 F               2         ED First time derivative of 1st tower fore-aft bending mode DOF (internal DOF index = DOF_TFA1), m/s
         18    0.000E+00                                 F               2         ED First time derivative of 1st tower side-to-side bending mode DOF (internal DOF index = DOF_TSS1), m/s
         19    0.000E+00                                 F               2         ED First time derivative of 2nd tower fore-aft bending mode DOF (internal DOF index = DOF_TFA2), m/s
         20    0.000E+00                                 F               2         ED First time derivative of 2nd tower side-to-side bending mode DOF (internal DOF index = DOF_TSS2), m/s

Order of continuous state derivatives:
   Row/Column Operating Point                     Rotating Frame? Derivative Order Description
   ---------- ---------------                     --------------- ---------------- -----------
          1    0.000E+00                                 F               2         First time derivative of ED Platform horizontal surge translation DOF (internal DOF index = DOF_Sg), m/s
          2    0.000E+00                                 F               2         First time derivative of ED Platform horizontal sway translation DOF (internal DOF index = DOF_Sw), m/s
          3    0.000E+00                                 F               2         First time derivative of ED Platform vertical heave translation DOF (internal DOF index = DOF_Hv), m/s
          4    0.000E+00                                 F               2         First time derivative of ED Platform roll tilt rotation DOF (internal DOF index = DOF_R), rad/s
          5    0.000E+00                                 F               2         First time derivative of ED Platform pitch tilt rotation DOF (internal DOF index = DOF_P), rad/s
          6    0.000E+00                                 F               2         First time derivative of ED Platform yaw rotation DOF (internal DOF index = DOF_Y), rad/s
          7    0.000E+00                                 F               2         First time derivative of ED 1st tower fore-aft bending mode DOF (internal DOF index = DOF_TFA1), m/s
          8    0.000E+00                                 F               2         First time derivative of ED 1st tower side-to-side bending mode DOF (internal DOF index = DOF_TSS1), m/s
          9    0.000E+00                                 F               2         First time derivative of ED 2nd tower fore-aft bending mode DOF (internal DOF index = DOF_TFA2), m/s
         10    0.000E+00                                 F               2         First time derivative of ED 2nd tower side-to-side bending mode DOF (internal DOF index = DOF_TSS2), m/s
         11    1.364E-02                                 F               2         First time derivative of ED First time derivative of Platform horizontal surge translation DOF (internal DOF index = DOF_Sg), m/s/s
         12   -2.008E-03                                 F               2         First time derivative of ED First time derivative of Platform horizontal sway translation DOF (internal DOF index = DOF_Sw), m/s/s
         13    2.883E-02                                 F               2         First time derivative of ED First time derivative of Platform vertical heave translation DOF (internal DOF index = DOF_Hv), m/s/s
         14   -1.009E-03                                 F               2         First time derivative of ED First time derivative of Platform roll tilt rotation DOF (internal DOF index = DOF_R), rad/s/s
         15    6.383E-04                                 F               2         First time derivative of ED First time derivative of Platform pitch tilt rotation DOF (internal DOF index = DOF_P), rad/s/s
         16    5.492E-05                                 F               2         First time derivative of ED First time derivative of Platform yaw rotation DOF (internal DOF index = DOF_Y), rad/s/s
         17   -6.286E-01                                 F               2         First time derivative of ED First time derivative of 1st tower fore-aft bending mode DOF (internal DOF index = DOF_TFA1), m/s/s
         18    1.386E-01                                 F               2         First time derivative of ED First time derivative of 1st tower side-to-side bending mode DOF (internal DOF index = DOF_TSS1), m/s/s
         19    9.157E-01                                 F               2         First time derivative of ED First time derivative of 2nd tower fore-aft bending mode DOF (internal DOF index = DOF_TFA2), m/s/s
         20    4.491E-03                                 F               2         First time derivative of ED First time derivative of 2nd tower side-to-side bending mode DOF (internal DOF index = DOF_TSS2), m/s/s

Order of inputs:
     Column   Operating Point                     Rotating Frame? Derivative Order Description
   ---------- ---------------                     --------------- ---------------- -----------
          1    0.000E+00                                 F               0         ED Blade 1 X force, node 1, N
          2    0.000E+00                                 F               0         ED Blade 1 Y force, node 1, N
          3    0.000E+00                                 F               0         ED Blade 1 Z force, node 1, N
          4    0.000E+00                                 F               0         ED Blade 1 X force, node 2, N
          5    0.000E+00                                 F               0         ED Blade 1 Y force, node 2, N
          6    0.000E+00                                 F               0         ED Blade 1 Z force, node 2, N
          7    0.000E+00                                 F               0         ED Blade 1 X moment, node 1, Nm
          8    0.000E+00                                 F               0         ED Blade 1 Y moment, node 1, Nm
          9    0.000E+00                                 F               0         ED Blade 1 Z moment, node 1, Nm
         10    0.000E+00                                 F               0         ED Blade 1 X moment, node 2, Nm
         11    0.000E+00                                 F               0         ED Blade 1 Y moment, node 2, Nm
         12    0.000E+00                                 F               0         ED Blade 1 Z moment, node 2, Nm
         13    0.000E+00                                 F               0         ED Blade 2 X force, node 1, N
         14    0.000E+00                                 F               0         ED Blade 2 Y force, node 1, N
         15    0.000E+00                                 F               0         ED Blade 2 Z force, node 1, N
         16    0.000E+00                                 F               0         ED Blade 2 X force, node 2, N
         17    0.000E+00                                 F               0         ED Blade 2 Y force, node 2, N
         18    0.000E+00                                 F               0         ED Blade 2 Z force, node 2, N
         19    0.000E+00                                 F               0         ED Blade 2 X moment, node 1, Nm
         20    0.000E+00                                 F               0         ED Blade 2 Y moment, node 1, Nm
         21    0.000E+00                                 F               0         ED Blade 2 Z moment, node 1, Nm
         22    0.000E+00                                 F               0         ED Blade 2 X moment, node 2, Nm
         23    0.000E+00                                 F               0         ED Blade 2 Y moment, node 2, Nm
         24    0.000E+00                                 F               0         ED Blade 2 Z moment, node 2, Nm
         25    0.000E+00                                 F               0         ED Blade 3 X force, node 1, N
         26    0.000E+00                                 F               0         ED Blade 3 Y force, node 1, N
         27    0.000E+00                                 F               0         ED Blade 3 Z force, node 1, N
         28    0.000E+00                                 F               0         ED Blade 3 X force, node 2, N
         29    0.000E+00                                 F               0         ED Blade 3 Y force, node 2, N
         30    0.000E+00                                 F               0         ED Blade 3 Z force, node 2, N
         31    0.000E+00                                 F               0         ED Blade 3 X moment, node 1, Nm
         32    0.000E+00                                 F               0         ED Blade 3 Y moment, node 1, Nm
         33    0.000E+00                                 F               0         ED Blade 3 Z moment, node 1, Nm
         34    0.000E+00                                 F               0         ED Blade 3 X moment, node 2, Nm
         35    0.000E+00                                 F               0         ED Blade 3 Y moment, node 2, Nm
         36    0.000E+00                                 F               0         ED Blade 3 Z moment, node 2, Nm
         37    6.501E+05                                 F               0         ED Platform X force, node 1, N
         38   -3.245E+05                                 F               0         ED Platform Y force, node 1, N
         39    1.966E+08                                 F               0         ED Platform Z force, node 1, N
         40    5.268E+06                                 F               0         ED Platform X moment, node 1, Nm
         41   -1.544E+07                                 F               0         ED Platform Y moment, node 1, Nm
         42    7.404E+05                                 F               0         ED Platform Z moment, node 1, Nm
         43    0.000E+00                                 F               0         ED Tower X force, node 1, N
         44    0.000E+00                                 F               0         ED Tower Y force, node 1, N
         45    0.000E+00                                 F               0         ED Tower Z force, node 1, N
         46    0.000E+00                                 F               0         ED Tower X force, node 2, N
         47    0.000E+00                                 F               0         ED Tower Y force, node 2, N
         48    0.000E+00                                 F               0         ED Tower Z force, node 2, N
         49    0.000E+00                                 F               0         ED Tower X moment, node 1, Nm
         50    0.000E+00                                 F               0         ED Tower Y moment, node 1, Nm
         51    0.000E+00                                 F               0         ED Tower Z moment, node 1, Nm
         52    0.000E+00                                 F               0         ED Tower X moment, node 2, Nm
         53    0.000E+00                                 F               0         ED Tower Y moment, node 2, Nm
         54    0.000E+00                                 F               0         ED Tower Z moment, node 2, Nm
         55    0.000E+00                                 F               0         ED Hub X force, node 1, N
         56    0.000E+00                                 F               0         ED Hub Y force, node 1, N
         57    0.000E+00                                 F               0         ED Hub Z force, node 1, N
         58    0.000E+00                                 F               0         ED Hub X moment, node 1, Nm
         59    0.000E+00                                 F               0         ED Hub Y moment, node 1, Nm
         60    0.000E+00                                 F               0         ED Hub Z moment, node 1, Nm
         61    0.000E+00                                 F               0         ED Nacelle X force, node 1, N
         62    0.000E+00                                 F               0         ED Nacelle Y force, node 1, N
         63    0.000E+00                                 F               0         ED Nacelle Z force, node 1, N
         64    0.000E+00                                 F               0         ED Nacelle X moment, node 1, Nm
         65    0.000E+00                                 F               0         ED Nacelle Y moment, node 1, Nm
         66    0.000E+00                                 F               0         ED Nacelle Z moment, node 1, Nm
         67    0.000E+00                                 T               0         ED Blade 1 pitch command, rad
         68    0.000E+00                                 T               0         ED Blade 2 pitch command, rad
         69    0.000E+00                                 T               0         ED Blade 3 pitch command, rad
         70    0.000E+00                                 F               0         ED Yaw moment, Nm
         71    0.000E+00                                 F               0         ED Generator torque, Nm
         72    0.000E+00                                 F               0         ED Extended input: collective blade-pitch command, rad
         73    0.000E+00                                 F               0         HD WAMIT X translation displacement, node 1, m
         74    0.000E+00                                 F               0         HD WAMIT Y translation displacement, node 1, m
         75    0.000E+00                                 F               0         HD WAMIT Z translation displacement, node 1, m
         76    1.000E+00,  0.000E+00,  0.000E+00         F               0         HD WAMIT X orientation angle, node 1, rad
         77    0.000E+00,  1.000E+00,  0.000E+00         F               0         HD WAMIT Y orientation angle, node 1, rad
         78    0.000E+00,  0.000E+00,  1.000E+00         F               0         HD WAMIT Z orientation angle, node 1, rad
         79    0.000E+00                                 F               0         HD WAMIT X translation velocity, node 1, m/s
         80    0.000E+00                                 F               0         HD WAMIT Y translation velocity, node 1, m/s
         81    0.000E+00                                 F               0         HD WAMIT Z translation velocity, node 1, m/s
         82    0.000E+00                                 F               0         HD WAMIT X rotation velocity, node 1, rad/s
         83    0.000E+00                                 F               0         HD WAMIT Y rotation velocity, node 1, rad/s
         84    0.000E+00                                 F               0         HD WAMIT Z rotation velocity, node 1, rad/s
         85    1.364E-02                                 F               0         HD WAMIT X translation acceleration, node 1, m/s^2
         86   -2.008E-03                                 F               0         HD WAMIT Y translation acceleration, node 1, m/s^2
         87    2.885E-02                                 F               0         HD WAMIT Z translation acceleration, node 1, m/s^2
         88   -1.009E-03                                 F               0         HD WAMIT X rotation acceleration, node 1, rad/s^2
         89    6.383E-04                                 F               0         HD WAMIT Y rotation acceleration, node 1, rad/s^2
         90    5.492E-05                                 F               0         HD WAMIT Z rotation acceleration, node 1, rad/s^2
         91    0.000E+00                                 F               0         HD Platform-RefPt X translation displacement, node 1, m
         92    0.000E+00                                 F               0         HD Platform-RefPt Y translation displacement, node 1, m
         93    0.000E+00                                 F               0         HD Platform-RefPt Z translation displacement, node 1, m
         94    1.000E+00,  0.000E+00,  0.000E+00         F               0         HD Platform-RefPt X orientation angle, node 1, rad
         95    0.000E+00,  1.000E+00,  0.000E+00         F               0         HD Platform-RefPt Y orientation angle, node 1, rad
         96    0.000E+00,  0.000E+00,  1.000E+00         F               0         HD Platform-RefPt Z orientation angle, node 1, rad
         97    0.000E+00                                 F               0         HD Platform-RefPt X translation velocity, node 1, m/s
         98    0.000E+00                                 F               0         HD Platform-RefPt Y translation velocity, node 1, m/s
         99    0.000E+00                                 F               0         HD Platform-RefPt Z translation velocity, node 1, m/s
        100    0.000E+00                                 F               0         HD Platform-RefPt X rotation velocity, node 1, rad/s
        101    0.000E+00                                 F               0         HD Platform-RefPt Y rotation velocity, node 1, rad/s
        102    0.000E+00                                 F               0         HD Platform-RefPt Z rotation velocity, node 1, rad/s
        103    1.364E-02                                 F               0         HD Platform-RefPt X translation acceleration, node 1, m/s^2
        104   -2.008E-03                                 F               0         HD Platform-RefPt Y translation acceleration, node 1, m/s^2
        105    2.885E-02                                 F               0         HD Platform-RefPt Z translation acceleration, node 1, m/s^2
        106   -1.009E-03                                 F               0         HD Platform-RefPt X rotation acceleration, node 1, rad/s^2
        107    6.383E-04                                 F               0         HD Platform-RefPt Y rotation acceleration, node 1, rad/s^2
        108    5.492E-05                                 F               0         HD Platform-RefPt Z rotation acceleration, node 1, rad/s^2
        109    0.000E+00                                 F               0         HD Extended input: wave elevation at platform ref point, m
        110    0.000E+00                                 F               0         MD CoupledKinematics X translation displacement, node 1, m
        111    0.000E+00                                 F               0         MD CoupledKinematics Y translation displacement, node 1, m
        112    0.000E+00                                 F               0         MD CoupledKinematics Z translation displacement, node 1, m
        113    0.000E+00                                 F               0         MD CoupledKinematics X translation displacement, node 2, m
        114    0.000E+00                                 F               0         MD CoupledKinematics Y translation displacement, node 2, m
        115    0.000E+00                                 F               0         MD CoupledKinematics Z translation displacement, node 2, m
        116    0.000E+00                                 F               0         MD CoupledKinematics X translation displacement, node 3, m
        117    0.000E+00                                 F               0         MD CoupledKinematics Y translation displacement, node 3, m
        118    0.000E+00                                 F               0         MD CoupledKinematics Z translation displacement, node 3, m
        119    1.000E+00,  0.000E+00,  0.000E+00         F               0         MD CoupledKinematics X orientation angle, node 1, rad
        120    0.000E+00,  1.000E+00,  0.000E+00         F               0         MD CoupledKinematics Y orientation angle, node 1, rad
        121    0.000E+00,  0.000E+00,  1.000E+00         F               0         MD CoupledKinematics Z orientation angle, node 1, rad
        122    1.000E+00,  0.000E+00,  0.000E+00         F               0         MD CoupledKinematics X orientation angle, node 2, rad
        123    0.000E+00,  1.000E+00,  0.000E+00         F               0         MD CoupledKinematics Y orientation angle, node 2, rad
        124    0.000E+00,  0.000E+00,  1.000E+00         F               0         MD CoupledKinematics Z orientation angle, node 2, rad
        125    1.000E+00,  0.000E+00,  0.000E+00         F               0         MD CoupledKinematics X orientation angle, node 3, rad
        126    0.000E+00,  1.000E+00,  0.000E+00         F               0         MD CoupledKinematics Y orientation angle, node 3, rad
        127    0.000E+00,  0.000E+00,  1.000E+00         F               0         MD CoupledKinematics Z orientation angle, node 3, rad
        128    0.000E+00                                 F               0         MD CoupledKinematics X translation velocity, node 1, m/s
        129    0.000E+00                                 F               0         MD CoupledKinematics Y translation velocity, node 1, m/s
        130    0.000E+00                                 F               0         MD CoupledKinematics Z translation velocity, node 1, m/s
        131    0.000E+00                                 F               0         MD CoupledKinematics X translation velocity, node 2, m/s
        132    0.000E+00                                 F               0         MD CoupledKinematics Y translation velocity, node 2, m/s
        133    0.000E+00                                 F               0         MD CoupledKinematics Z translation velocity, node 2, m/s
        134    0.000E+00                                 F               0         MD CoupledKinematics X translation velocity, node 3, m/s
        135    0.000E+00                                 F               0         MD CoupledKinematics Y translation velocity, node 3, m/s
        136    0.000E+00                                 F               0         MD CoupledKinematics Z translation velocity, node 3, m/s
        137    0.000E+00                                 F               0         MD CoupledKinematics X rotation velocity, node 1, rad/s
        138    0.000E+00                                 F               0         MD CoupledKinematics Y rotation velocity, node 1, rad/s
        139    0.000E+00                                 F               0         MD CoupledKinematics Z rotation velocity, node 1, rad/s
        140    0.000E+00                                 F               0         MD CoupledKinematics X rotation velocity, node 2, rad/s
        141    0.000E+00                                 F               0         MD CoupledKinematics Y rotation velocity, node 2, rad/s
        142    0.000E+00                                 F               0         MD CoupledKinematics Z rotation velocity, node 2, rad/s
        143    0.000E+00                                 F               0         MD CoupledKinematics X rotation velocity, node 3, rad/s
        144    0.000E+00                                 F               0         MD CoupledKinematics Y rotation velocity, node 3, rad/s
        145    0.000E+00                                 F               0         MD CoupledKinematics Z rotation velocity, node 3, rad/s
        146    7.304E-03                                 F               0         MD CoupledKinematics X translation acceleration, node 1, m/s^2
        147   -1.486E-02                                 F               0         MD CoupledKinematics Y translation acceleration, node 1, m/s^2
        148    6.179E-02                                 F               0         MD CoupledKinematics Z translation acceleration, node 1, m/s^2
        149    1.647E-03                                 F               0         MD CoupledKinematics X translation acceleration, node 2, m/s^2
        150   -1.490E-02                                 F               0         MD CoupledKinematics Y translation acceleration, node 2, m/s^2
        151   -4.172E-02                                 F               0         MD CoupledKinematics Z translation acceleration, node 2, m/s^2
        152    4.475E-03                                 F               0         MD CoupledKinematics X translation acceleration, node 3, m/s^2
        153   -1.976E-02                                 F               0         MD CoupledKinematics Y translation acceleration, node 3, m/s^2
        154    6.674E-02                                 F               0         MD CoupledKinematics Z translation acceleration, node 3, m/s^2
        155   -1.009E-03                                 F               0         MD CoupledKinematics X rotation acceleration, node 1, rad/s^2
        156    6.383E-04                                 F               0         MD CoupledKinematics Y rotation acceleration, node 1, rad/s^2
        157    5.492E-05                                 F               0         MD CoupledKinematics Z rotation acceleration, node 1, rad/s^2
        158   -1.009E-03                                 F               0         MD CoupledKinematics X rotation acceleration, node 2, rad/s^2
        159    6.383E-04                                 F               0         MD CoupledKinematics Y rotation acceleration, node 2, rad/s^2
        160    5.492E-05                                 F               0         MD CoupledKinematics Z rotation acceleration, node 2, rad/s^2
        161   -1.009E-03                                 F               0         MD CoupledKinematics X rotation acceleration, node 3, rad/s^2
        162    6.383E-04                                 F               0         MD CoupledKinematics Y rotation acceleration, node 3, rad/s^2
        163    5.492E-05                                 F               0         MD CoupledKinematics Z rotation acceleration, node 3, rad/s^2

Order of outputs:
        Row   Operating Point                     Rotating Frame? Derivative Order Description
   ---------- ---------------                     --------------- ---------------- -----------
          1    0.000E+00                                 F               0         ED PtfmRoll, (deg)