
Predictions were generated on 10-Aug-2023 at 11:37:50 using OpenFAST, compiled as a 64-bit application using single precision at commit v3.5.0
 linked with  NWTC Subroutine Library; ElastoDyn; ServoDyn; HydroDyn; MAP++ (<1.20.10>, <May-17-2023>)

Description from the FAST input file: Input file for CCT9 Campaign 2: Floating offshore wind turbine. Input files to be used in OpenFAST v3.5.0.

Time	TTDspFA	TTDspSS	YawBrTAxp	YawBrTAyp	YawBrTAzp	TwrBsFxt	TwrBsFyt	TwrBsFzt	TwrBsMxt	TwrBsMyt	TwrBsMzt	PtfmSurge	PtfmSway	PtfmHeave	PtfmRoll	PtfmPitch	PtfmYaw	PtfmTAxi	PtfmTAyi	PtfmTAzi	PtfmRAxi	PtfmRAyi	PtfmRAzi	SStC1_zQ	SStC1_zQD	SStC1_Fzl	SStC2_zQ	SStC2_zQD	SStC2_Fzl	SStC3_zQ	SStC3_zQD	SStC3_Fzl	Wave1Elev	HydroFxi	HydroFyi	HydroFzi	HydroMxi	HydroMyi	HydroMzi	B1WvsFxi	B1WvsFyi	B1WvsFzi	B1WvsMxi	B1WvsMyi	B1WvsMzi	B1WvsF1xi	B1WvsF1yi	B1WvsF1zi	B1WvsM1xi	B1WvsM1yi	B1WvsM1zi	B1WvsF2xi	B1WvsF2yi	B1WvsF2zi	B1WvsM2xi	B1WvsM2yi	B1WvsM2zi	T[1]	T[2]	T[3]
(s)	(m)	(m)	(m/s^2)	(m/s^2)	(m/s^2)	(kN)	(kN)	(kN)	(kN-m)	(kN-m)	(kN-m)	(m)	(m)	(m)	(deg)	(deg)	(deg)	(m/s^2)	(m/s^2)	(m/s^2)	(deg/s^2)	(deg/s^2)	(deg/s^2)	INVALID	INVALID	INVALID	INVALID	INVALID	INVALID	INVALID	INVALID	INVALID	(m)	(N)	(N)	(N)	(N-m)	(N-m)	(N-m)	(N)	(N)	(N)	(N-m)	(N-m)	(N-m)	(N)	(N)	(N)	(N-m)	(N-m)	(N-m)	(N)	(N)	(N)	(N-m)	(N-m)	(N-m)	[N]	[N]	[N]
    0.0000	 0.000E+00	 0.000E+00	 4.891E-01	-2.131E-03	 2.709E-02	-5.648E+02	-3.161E+00	-1.536E+04	 4.005E+01	-1.296E+04	 3.057E+00	 0.000E+00	 0.000E+00	 0.000E+00	 0.000E+00	 0.000E+00	 0.000E+00	 1.289E-02	-2.448E-03	 2.709E-02	-5.865E-02	 3.226E-02	 3.148E-03	 0.000E+00	 0.000E+00	 0.000E+00	 0.000E+00	 0.000E+00	 0.000E+00	 0.000E+00	 0.000E+00	 0.000E+00	 0.000E+00	-6.562E+04	 1.235E+05	 1.966E+08	 1.183E+07	-5.109E+06	-1.076E+06	 0.000E+00	 0.000E+00	 0.000E+00	 0.000E+00	 0.000E+00	 0.000E+00	 0.000E+00	 0.000E+00	 0.000E+00	 0.000E+00	 0.000E+00	 0.000E+00	 0.000E+00	 0.000E+00	 0.000E+00	 0.000E+00	 0.000E+00	 0.000E+00	 3.770E+06	 3.050E+06	 2.760E+06
